----- GAMESS execution script 'rungms' -----
This job is running on host euler
under operating system Linux at Fri Jul 17 16:52:10 EDT 2015
Available scratch disk space (Kbyte units) at beginning of the job is
Filesystem     1K-blocks      Used Available Use% Mounted on
/dev/sda1      476528664 195804408 256494932  44% /
GAMESS temporary binary files will be written to /home/simon/gamess_tmp
GAMESS supplementary output files will be written to /home/simon/scr
Copying input file gamess.inp to your run's scratch directory...

 Distributed Data Interface kickoff program.
 Initiating 1 compute processes on 1 nodes to run the following command:
 /home/simon/gamess/gamess.00.x gamess 

          ******************************************************
          *         GAMESS VERSION =  1 MAY 2013 (R1)          *
          *             FROM IOWA STATE UNIVERSITY             *
          * M.W.SCHMIDT, K.K.BALDRIDGE, J.A.BOATZ, S.T.ELBERT, *
          *   M.S.GORDON, J.H.JENSEN, S.KOSEKI, N.MATSUNAGA,   *
          *          K.A.NGUYEN, S.J.SU, T.L.WINDUS,           *
          *       TOGETHER WITH M.DUPUIS, J.A.MONTGOMERY       *
          *         J.COMPUT.CHEM.  14, 1347-1363(1993)        *
          **************** 64 BIT LINUX VERSION ****************

  SINCE 1993, STUDENTS AND POSTDOCS WORKING AT IOWA STATE UNIVERSITY
  AND ALSO IN THEIR VARIOUS JOBS AFTER LEAVING ISU HAVE MADE IMPORTANT
  CONTRIBUTIONS TO THE CODE:
     IVANA ADAMOVIC, CHRISTINE AIKENS, YURI ALEXEEV, POOJA ARORA,
     ANDREY ASADCHEV, ROB BELL, PRADIPTA BANDYOPADHYAY, JONATHAN BENTZ,
     BRETT BODE, GALINA CHABAN, WEI CHEN, CHEOL HO CHOI, PAUL DAY,
     ALBERT DEFUSCO, TIM DUDLEY, DMITRI FEDOROV, GRAHAM FLETCHER,
     MARK FREITAG, KURT GLAESEMANN, DAN KEMP, GRANT MERRILL,
     NORIYUKI MINEZAWA, JONATHAN MULLIN, TAKESHI NAGATA,
     SEAN NEDD, HEATHER NETZLOFF, BOSILJKA NJEGIC, RYAN OLSON, MIKE PAK,
     JIM SHOEMAKER, LYUDMILA SLIPCHENKO, SAROM SOK, JIE SONG,
     TETSUYA TAKETSUGU, SIMON WEBB, SOOHAENG YOO, FEDERICO ZAHARIEV

  ADDITIONAL CODE HAS BEEN PROVIDED BY COLLABORATORS IN OTHER GROUPS:
     IOWA STATE UNIVERSITY:
          JOE IVANIC, LAIMUTIS BYTAUTAS, KLAUS RUEDENBERG
     UNIVERSITY OF TOKYO: KIMIHIKO HIRAO, TAKAHITO NAKAJIMA,
          TAKAO TSUNEDA, MUNEAKI KAMIYA, SUSUMU YANAGISAWA,
          KIYOSHI YAGI, MAHITO CHIBA, SEIKEN TOKURA, NAOAKI KAWAKAMI
     UNIVERSITY OF AARHUS: FRANK JENSEN
     UNIVERSITY OF IOWA: VISVALDAS KAIRYS, HUI LI
     NATIONAL INST. OF STANDARDS AND TECHNOLOGY: WALT STEVENS, DAVID GARMER
     UNIVERSITY OF PISA: BENEDETTA MENNUCCI, JACOPO TOMASI
     UNIVERSITY OF MEMPHIS: HENRY KURTZ, PRAKASHAN KORAMBATH
     UNIVERSITY OF ALBERTA: TOBY ZENG, MARIUSZ KLOBUKOWSKI
     UNIVERSITY OF NEW ENGLAND: MARK SPACKMAN
     MIE UNIVERSITY: HIROAKI UMEDA
     MICHIGAN STATE UNIVERSITY:
          KAROL KOWALSKI, MARTA WLOCH, JEFFREY GOUR, JESSE LUTZ,
          WEI LI, PIOTR PIECUCH
     UNIVERSITY OF SILESIA: MONIKA MUSIAL, STANISLAW KUCHARSKI
     FACULTES UNIVERSITAIRES NOTRE-DAME DE LA PAIX:
          OLIVIER QUINET, BENOIT CHAMPAGNE
     UNIVERSITY OF CALIFORNIA - SANTA BARBARA: BERNARD KIRTMAN
     INSTITUTE FOR MOLECULAR SCIENCE:
          KAZUYA ISHIMURA, MICHIO KATOUDA, AND SHIGERU NAGASE
     UNIVERSITY OF NOTRE DAME: DAN CHIPMAN
     KYUSHU UNIVERSITY:
          HARUYUKI NAKANO,
          FENG LONG GU, JACEK KORCHOWIEC, MARCIN MAKOWSKI, AND YURIKO AOKI,
          HIROTOSHI MORI AND EISAKU MIYOSHI
     PENNSYLVANIA STATE UNIVERSITY:
          TZVETELIN IORDANOV, CHET SWALINA, JONATHAN SKONE,
          SHARON HAMMES-SCHIFFER
     WASEDA UNIVERSITY:
          MASATO KOBAYASHI, TOMOKO AKAMA, TSUGUKI TOUMA,
          TAKESHI YOSHIKAWA, YASUHIRO IKABATA, HIROMI NAKAI
     NANJING UNIVERSITY: SHUHUA LI
     UNIVERSITY OF NEBRASKA:
          PEIFENG SU, DEJUN SI, NANDUN THELLAMUREGE, YALI WANG, HUI LI
     UNIVERSITY OF ZURICH:
          ROBERTO PEVERATI, KIM BALDRIDGE
     N. COPERNICUS UNIVERSITY AND JACKSON STATE UNIVERSITY:
          MARIA BARYSZ

 EXECUTION OF GAMESS BEGUN Fri Jul 17 16:52:10 2015

            ECHO OF THE FIRST FEW INPUT CARDS -
 INPUT CARD> $CONTRL SCFTYP=RHF RUNTYP=ENERGY COORD=UNIQUE NZVAR=0 $END                     
 INPUT CARD>                                                                                
 INPUT CARD> $DATA                                                                          
 INPUT CARD>                                                                                
 INPUT CARD>C1       0                                                                      
 INPUT CARD>C           6.0      0.0000000000      0.0000000000      0.0000000000           
 INPUT CARD>   S       2                                                                    
 INPUT CARD>     1             27.3850330300  0.43012850                                    
 INPUT CARD>     2              4.8745220520  0.67891353                                    
 INPUT CARD>   S       2                                                                    
 INPUT CARD>     1              1.1367481890  0.04947177                                    
 INPUT CARD>     2              0.2883093600  0.96378241                                    
 INPUT CARD>   S       1                                                                    
 INPUT CARD>     1              0.2456452307  1.00000000                                    
 INPUT CARD>   P       2                                                                    
 INPUT CARD>     1              1.1367481890  0.51154071                                    
 INPUT CARD>     2              0.2883093600  0.61281990                                    
 INPUT CARD>   P       1                                                                    
 INPUT CARD>     1              0.4300821797  1.00000000                                    
 INPUT CARD>                                                                                
 INPUT CARD>S          16.0     -1.5830663000      0.0000000000      0.0000000000           
 INPUT CARD>   S       2                                                                    
 INPUT CARD>     1            203.8580090000  0.43012800                                    
 INPUT CARD>     2             36.2866230000  0.67891400                                    
 INPUT CARD>   S       2                                                                    
 INPUT CARD>     1             12.8814430000  0.04947200                                    
 INPUT CARD>     2              3.2670740000  0.96378200                                    
 INPUT CARD>   S       2                                                                    
 INPUT CARD>     1              0.7225530000 -0.29839900                                    
 INPUT CARD>     2              0.2479010000  1.22798300                                    
 INPUT CARD>   P       2                                                                    
 INPUT CARD>     1             12.8814430000  0.51154100                                    
 INPUT CARD>     2              3.2670740000  0.61282000                                    
 INPUT CARD>   P       2                                                                    
 INPUT CARD>     1              0.7225530000  0.34804700                                    
 INPUT CARD>     2              0.2479010000  0.72225200                                    
 INPUT CARD>                                                                                
 INPUT CARD>S          16.0      1.5830663000      0.0000000000      0.0000000000           
 INPUT CARD>   S       2                                                                    
 INPUT CARD>     1            203.8580090000  0.43012800                                    
 INPUT CARD>     2             36.2866230000  0.67891400                                    
 INPUT CARD>   S       2                                                                    
 INPUT CARD>     1             12.8814430000  0.04947200                                    
 INPUT CARD>     2              3.2670740000  0.96378200                                    
 INPUT CARD>   S       2                                                                    
 INPUT CARD>     1              0.7225530000 -0.29839900                                    
 INPUT CARD>     2              0.2479010000  1.22798300                                    
 INPUT CARD>   P       2                                                                    
 INPUT CARD>     1             12.8814430000  0.51154100                                    
 INPUT CARD>     2              3.2670740000  0.61282000                                    
    1000000 WORDS OF MEMORY AVAILABLE


     RUN TITLE
     ---------
                                                                                 

 THE POINT GROUP OF THE MOLECULE IS C1      
 THE ORDER OF THE PRINCIPAL AXIS IS     0

 ATOM      ATOMIC                      COORDINATES (BOHR)
           CHARGE         X                   Y                   Z
 C           6.0     0.0000000000        0.0000000000        0.0000000000
 S          16.0    -2.9915615274        0.0000000000        0.0000000000
 S          16.0     2.9915615274        0.0000000000        0.0000000000

          INTERNUCLEAR DISTANCES (ANGS.)
          ------------------------------

                1 C          2 S          3 S     

   1 C       0.0000000    1.5830663 *  1.5830663 *
   2 S       1.5830663 *  0.0000000    3.1661326  
   3 S       1.5830663 *  3.1661326    0.0000000  

  * ... LESS THAN  3.000


     ATOMIC BASIS SET
     ----------------
 THE CONTRACTED PRIMITIVE FUNCTIONS HAVE BEEN UNNORMALIZED
 THE CONTRACTED BASIS FUNCTIONS ARE NOW NORMALIZED TO UNITY

  SHELL TYPE  PRIMITIVE        EXPONENT          CONTRACTION COEFFICIENT(S)

 C         

      1   S       1            27.3850330    0.430128499772
      1   S       2             4.8745221    0.678913529640

      2   S       3             1.1367482    0.049471769872
      2   S       4             0.2883094    0.963782407507

      3   S       5             0.2456452    1.000000000000

      4   P       6             1.1367482    0.511540706632
      4   P       7             0.2883094    0.612819895965

      5   P       8             0.4300822    1.000000000000

 S         

      6   S       9           203.8580090    0.430127990466
      6   S      10            36.2866230    0.678913984951

      7   S      11            12.8814430    0.049472011710
      7   S      12             3.2670740    0.963782228133

      8   S      13             0.7225530   -0.298399086217
      8   S      14             0.2479010    1.227983354805

      9   P      15            12.8814430    0.511540824153
      9   P      16             3.2670740    0.612819789337

     10   P      17             0.7225530    0.348047123549
     10   P      18             0.2479010    0.722252256383

 S         

     11   S      19           203.8580090    0.430127990466
     11   S      20            36.2866230    0.678913984951

     12   S      21            12.8814430    0.049472011710
     12   S      22             3.2670740    0.963782228133

     13   S      23             0.7225530   -0.298399086217
     13   S      24             0.2479010    1.227983354805

     14   P      25            12.8814430    0.511540824153
     14   P      26             3.2670740    0.612819789337

     15   P      27             0.7225530    0.348047123549
     15   P      28             0.2479010    0.722252256383

 TOTAL NUMBER OF BASIS SET SHELLS             =   15
 NUMBER OF CARTESIAN GAUSSIAN BASIS FUNCTIONS =   27
 NUMBER OF ELECTRONS                          =   38
 CHARGE OF MOLECULE                           =    0
 SPIN MULTIPLICITY                            =    1
 NUMBER OF OCCUPIED ORBITALS (ALPHA)          =   19
 NUMBER OF OCCUPIED ORBITALS (BETA )          =   19
 TOTAL NUMBER OF ATOMS                        =    3
 THE NUCLEAR REPULSION ENERGY IS      106.9675475732

 THIS MOLECULE IS RECOGNIZED AS BEING LINEAR,
 ORBITAL LZ DEGENERACY TOLERANCE ETOLLZ= 1.00E-06

     $CONTRL OPTIONS
     ---------------
 SCFTYP=RHF          RUNTYP=ENERGY       EXETYP=RUN     
 MPLEVL=       0     CITYP =NONE         CCTYP =NONE         VBTYP =NONE    
 DFTTYP=NONE         TDDFT =NONE    
 MULT  =       1     ICHARG=       0     NZVAR =       0     COORD =UNIQUE  
 PP    =NONE         RELWFN=NONE         LOCAL =NONE         NUMGRD=       F
 ISPHER=      -1     NOSYM =       0     MAXIT =      30     UNITS =ANGS    
 PLTORB=       F     MOLPLT=       F     AIMPAC=       F     FRIEND=        
 NPRINT=       7     IREST =       0     GEOM  =INPUT   
 NORMF =       0     NORMP =       0     ITOL  =      20     ICUT  =       9
 INTTYP=BEST         GRDTYP=BEST         QMTTOL= 1.0E-06

     $SYSTEM OPTIONS
     ---------------
  REPLICATED MEMORY=     1000000 WORDS (ON EVERY NODE).
 DISTRIBUTED MEMDDI=           0 MILLION WORDS IN AGGREGATE,
 MEMDDI DISTRIBUTED OVER   1 PROCESSORS IS           0 WORDS/PROCESSOR.
 TOTAL MEMORY REQUESTED ON EACH PROCESSOR=     1000000 WORDS.
 TIMLIM=      525600.00 MINUTES, OR     365.0 DAYS.
 PARALL= F  BALTYP=  DLB     KDIAG=    0  COREFL= F
 MXSEQ2=     300 MXSEQ3=     150

          ----------------
          PROPERTIES INPUT
          ----------------

     MOMENTS            FIELD           POTENTIAL          DENSITY
 IEMOM =       1   IEFLD =       0   IEPOT =       0   IEDEN =       0
 WHERE =COMASS     WHERE =NUCLEI     WHERE =NUCLEI     WHERE =NUCLEI  
 OUTPUT=BOTH       OUTPUT=BOTH       OUTPUT=BOTH       OUTPUT=BOTH    
 IEMINT=       0   IEFINT=       0                     IEDINT=       0
                                                       MORB  =       0
          EXTRAPOLATION IN EFFECT
          SOSCF IN EFFECT
 ORBITAL PRINTING OPTION: NPREO=     1    27     2     1

     -------------------------------
     INTEGRAL TRANSFORMATION OPTIONS
     -------------------------------
     NWORD  =            0
     CUTOFF = 1.0E-09     MPTRAN =       0
     DIRTRF =       F     AOINTS =DUP     

          ----------------------
          INTEGRAL INPUT OPTIONS
          ----------------------
 NOPK  =       1 NORDER=       0 SCHWRZ=       F

     ------------------------------------------
     THE POINT GROUP IS C1 , NAXIS= 0, ORDER= 1
     ------------------------------------------

     DIMENSIONS OF THE SYMMETRY SUBSPACES ARE
 A   =   27

 ..... DONE SETTING UP THE RUN .....
 STEP CPU TIME =     0.03 TOTAL CPU TIME =        0.0 (    0.0 MIN)
 TOTAL WALL CLOCK TIME=        0.0 SECONDS, CPU UTILIZATION IS  75.00%

          ********************
          1 ELECTRON INTEGRALS
          ********************
 ...... END OF ONE-ELECTRON INTEGRALS ......
 STEP CPU TIME =     0.01 TOTAL CPU TIME =        0.0 (    0.0 MIN)
 TOTAL WALL CLOCK TIME=        0.0 SECONDS, CPU UTILIZATION IS 100.00%

          -------------
          GUESS OPTIONS
          -------------
          GUESS =HUCKEL            NORB  =       0          NORDER=       0
          MIX   =       F          PRTMO =       F          PUNMO =       F
          TOLZ  = 1.0E-08          TOLE  = 1.0E-05
          SYMDEN=       F          PURIFY=       F

 INITIAL GUESS ORBITALS GENERATED BY HUCKEL   ROUTINE.
 HUCKEL GUESS REQUIRES      9813 WORDS.

 SYMMETRIES FOR INITIAL GUESS ORBITALS FOLLOW.   BOTH SET(S).
    19 ORBITALS ARE OCCUPIED (   11 CORE ORBITALS).
    12=A       13=A       14=A       15=A       16=A       17=A       18=A   
    19=A       20=A       21=A       22=A       23=A       24=A       25=A   
    26=A       27=A   
 ...... END OF INITIAL ORBITAL SELECTION ......
 STEP CPU TIME =     0.01 TOTAL CPU TIME =        0.0 (    0.0 MIN)
 TOTAL WALL CLOCK TIME=        0.1 SECONDS, CPU UTILIZATION IS 100.00%

                    ----------------------
                    AO INTEGRAL TECHNOLOGY
                    ----------------------
     S,P,L SHELL ROTATED AXIS INTEGRALS, REPROGRAMMED BY
        KAZUYA ISHIMURA (IMS) AND JOSE SIERRA (SYNSTAR).
     S,P,D,L SHELL ROTATED AXIS INTEGRALS PROGRAMMED BY
        KAZUYA ISHIMURA (INSTITUTE FOR MOLECULAR SCIENCE).
     S,P,D,F,G SHELL TO TOTAL QUARTET ANGULAR MOMENTUM SUM 5,
        ERIC PROGRAM BY GRAHAM FLETCHER (ELORET AND NASA ADVANCED
        SUPERCOMPUTING DIVISION, AMES RESEARCH CENTER).
     S,P,D,F,G,L SHELL GENERAL RYS QUADRATURE PROGRAMMED BY
        MICHEL DUPUIS (PACIFIC NORTHWEST NATIONAL LABORATORY).

          --------------------
          2 ELECTRON INTEGRALS
          --------------------

 THE -PK- OPTION IS OFF, THE INTEGRALS ARE NOT IN SUPERMATRIX FORM.
 STORING   15000 INTEGRALS/RECORD ON DISK, USING 12 BYTES/INTEGRAL.
 TWO ELECTRON INTEGRAL EVALUATION REQUIRES   89476 WORDS OF MEMORY.
 II,JST,KST,LST =  1  1  1  1 NREC =         1 INTLOC =    1
 II,JST,KST,LST =  2  1  1  1 NREC =         1 INTLOC =    2
 II,JST,KST,LST =  3  1  1  1 NREC =         1 INTLOC =    7
 II,JST,KST,LST =  4  1  1  1 NREC =         1 INTLOC =   22
 II,JST,KST,LST =  5  1  1  1 NREC =         1 INTLOC =   67
 II,JST,KST,LST =  6  1  1  1 NREC =         1 INTLOC =  214
 II,JST,KST,LST =  7  1  1  1 NREC =         1 INTLOC =  380
 II,JST,KST,LST =  8  1  1  1 NREC =         1 INTLOC =  633
 II,JST,KST,LST =  9  1  1  1 NREC =         1 INTLOC =  993
 II,JST,KST,LST = 10  1  1  1 NREC =         1 INTLOC = 2139
 II,JST,KST,LST = 11  1  1  1 NREC =         1 INTLOC = 4158
 II,JST,KST,LST = 12  1  1  1 NREC =         1 INTLOC = 4840
 II,JST,KST,LST = 13  1  1  1 NREC =         1 INTLOC = 5781
 II,JST,KST,LST = 14  1  1  1 NREC =         1 INTLOC = 7373
 II,JST,KST,LST = 15  1  1  1 NREC =         1 INTLOC =10865
 TOTAL NUMBER OF NONZERO TWO-ELECTRON INTEGRALS =               17314
          2 INTEGRAL RECORDS WERE STORED ON DISK FILE  8.
  ...... END OF TWO-ELECTRON INTEGRALS .....
 STEP CPU TIME =     0.03 TOTAL CPU TIME =        0.1 (    0.0 MIN)
 TOTAL WALL CLOCK TIME=        0.1 SECONDS, CPU UTILIZATION IS 100.00%

          --------------------------
                 RHF SCF CALCULATION
          --------------------------

     NUCLEAR ENERGY =       106.9675475732
     MAXIT =   30     NPUNCH=    2
     EXTRAP=T  DAMP=F  SHIFT=F  RSTRCT=F  DIIS=F  DEM=F  SOSCF=T
     DENSITY MATRIX CONV=  1.00E-05
     SOSCF WILL OPTIMIZE     152 ORBITAL ROTATIONS, SOGTOL=   0.250
     MEMORY REQUIRED FOR RHF ITERS=     36089 WORDS.

 ITER EX DEM     TOTAL ENERGY        E CHANGE  DENSITY CHANGE     ORB. GRAD
   1  0  0     -800.8321904296  -800.8321904296   0.727279324   0.000000000
          ---------------START SECOND ORDER SCF---------------
   2  1  0     -801.1197966223    -0.2876061927   0.134029383   0.044894061
   3  2  0     -801.1331906803    -0.0133940580   0.322025319   0.032483721
   4  3  0     -801.1383008461    -0.0051101658   0.013938837   0.006487094
   5  4  0     -801.1384579352    -0.0001570892   0.009624992   0.001408319
   6  5  0     -801.1384645515    -0.0000066162   0.001436692   0.000087569
   7  6  0     -801.1384646155    -0.0000000640   0.000224436   0.000017586
   8  7  0     -801.1384646178    -0.0000000024   0.000004436   0.000002550
   9  8  0     -801.1384646179    -0.0000000000   0.000001134   0.000000324

          -----------------
          DENSITY CONVERGED
          -----------------
     TIME TO FORM FOCK OPERATORS=       0.0 SECONDS (       0.0 SEC/ITER)
     TIME TO SOLVE SCF EQUATIONS=       0.0 SECONDS (       0.0 SEC/ITER)

 FINAL RHF ENERGY IS     -801.1384646179 AFTER   9 ITERATIONS

 LZ VALUE ANALYSIS FOR THE MOS
 ----------------------------------------
 MO     1 (    1) HAS LZ(WEIGHT)= 0.00(100.0%) 
 MO     2 (    2) HAS LZ(WEIGHT)= 0.00(100.0%) 
 MO     3 (    3) HAS LZ(WEIGHT)= 0.00(100.0%) 
 MO     4 (    4) HAS LZ(WEIGHT)= 0.00(100.0%) 
 MO     5 (    5) HAS LZ(WEIGHT)= 0.00(100.0%) 
 MO     6 (    6) HAS LZ(WEIGHT)= 0.00(100.0%) 
 MO     7 (    7) HAS LZ(WEIGHT)= 0.00(100.0%) 
 MO     8 (    8) HAS LZ(WEIGHT)= 0.00(100.0%) 
 MO     9 (    8) HAS LZ(WEIGHT)= 0.00(100.0%) 
 MO    10 (    9) HAS LZ(WEIGHT)= 0.00(100.0%) 
 MO    11 (    9) HAS LZ(WEIGHT)= 0.00(100.0%) 
 MO    12 (   10) HAS LZ(WEIGHT)= 0.00(100.0%) 
 MO    13 (   11) HAS LZ(WEIGHT)= 0.00(100.0%) 
 MO    14 (   12) HAS LZ(WEIGHT)= 0.00(100.0%) 
 MO    15 (   13) HAS LZ(WEIGHT)= 0.00(100.0%) 
 MO    16 (   14) HAS LZ(WEIGHT)= 0.00(100.0%) 
 MO    17 (   14) HAS LZ(WEIGHT)= 0.00(100.0%) 
 MO    18 (   15) HAS LZ(WEIGHT)= 0.00(100.0%) 
 MO    19 (   15) HAS LZ(WEIGHT)= 0.00(100.0%) 
 MO    20 (   16) HAS LZ(WEIGHT)= 0.00(100.0%) 
 MO    21 (   16) HAS LZ(WEIGHT)= 0.00(100.0%) 
 MO    22 (   17) HAS LZ(WEIGHT)= 0.00(100.0%) 
 MO    23 (   18) HAS LZ(WEIGHT)= 0.00(100.0%) 
 MO    24 (   19) HAS LZ(WEIGHT)= 0.00(100.0%) 
 MO    25 (   20) HAS LZ(WEIGHT)= 0.00(100.0%) 
 MO    26 (   21) HAS LZ(WEIGHT)= 0.00(100.0%) 
 MO    27 (   21) HAS LZ(WEIGHT)= 0.00(100.0%) 

          ------------
          EIGENVECTORS
          ------------

                      1          2          3          4          5
                  -88.0989   -88.0989   -10.8656    -8.4403    -8.4391
                     A          A          A          A          A   
    1  C  1  S   -0.000101  -0.000000   0.970107  -0.001013   0.000000
    2  C  1  S   -0.002516  -0.000000   0.397451   0.051781   0.000000
    3  C  1  S    0.005374  -0.000000  -0.355029  -0.085214   0.000000
    4  C  1  X   -0.000000   0.001866   0.000000   0.000000  -0.000915
    5  C  1  Y   -0.000000  -0.000000   0.000000   0.000000   0.000000
    6  C  1  Z   -0.000000  -0.000000   0.000000   0.000000   0.000000
    7  C  1  X   -0.000000  -0.003951   0.000000   0.000000   0.019403
    8  C  1  Y   -0.000000  -0.000000   0.000000   0.000000   0.000000
    9  C  1  Z   -0.000000  -0.000000   0.000000   0.000000   0.000000
   10  S  2  S    0.695011   0.695013  -0.000141  -0.292409  -0.292517
   11  S  2  S    0.032763   0.032772   0.000724   0.739765   0.740048
   12  S  2  S   -0.004556  -0.004370   0.007371   0.060004   0.055054
   13  S  2  X    0.000252   0.000232  -0.000068   0.008320   0.008445
   14  S  2  Y   -0.000000  -0.000000   0.000000   0.000000   0.000000
   15  S  2  Z   -0.000000  -0.000000   0.000000   0.000000   0.000000
   16  S  2  X   -0.001103  -0.001165   0.001252   0.014616   0.011601
   17  S  2  Y   -0.000000  -0.000000   0.000000   0.000000   0.000000
   18  S  2  Z   -0.000000  -0.000000   0.000000   0.000000   0.000000
   19  S  3  S    0.695011  -0.695013  -0.000141  -0.292409   0.292517
   20  S  3  S    0.032763  -0.032772   0.000724   0.739765  -0.740048
   21  S  3  S   -0.004556   0.004370   0.007371   0.060004  -0.055054
   22  S  3  X   -0.000252   0.000232   0.000068  -0.008320   0.008445
   23  S  3  Y   -0.000000  -0.000000   0.000000   0.000000   0.000000
   24  S  3  Z   -0.000000  -0.000000   0.000000   0.000000   0.000000
   25  S  3  X    0.001103  -0.001165  -0.001252  -0.014616   0.011601
   26  S  3  Y   -0.000000  -0.000000   0.000000   0.000000   0.000000
   27  S  3  Z   -0.000000  -0.000000   0.000000   0.000000   0.000000

                      6          7          8          9         10
                   -6.1264    -6.1240    -6.1198    -6.1198    -6.1193
                     A          A          A          A          A   
    1  C  1  S    0.003007   0.000000   0.000000   0.000000   0.000000
    2  C  1  S   -0.110755   0.000000   0.000000   0.000000   0.000000
    3  C  1  S    0.169735   0.000000   0.000000   0.000000   0.000000
    4  C  1  X    0.000000   0.016528   0.000000   0.000000   0.000000
    5  C  1  Y    0.000000   0.000000  -0.006454   0.000269   0.000000
    6  C  1  Z    0.000000   0.000000  -0.000269  -0.006454   0.000000
    7  C  1  X    0.000000   0.015866   0.000000   0.000000   0.000000
    8  C  1  Y    0.000000   0.000000  -0.006232   0.000260   0.000000
    9  C  1  Z    0.000000   0.000000  -0.000260  -0.006232   0.000000
   10  S  2  S   -0.005282   0.004861   0.000000   0.000000   0.000000
   11  S  2  S    0.014301  -0.013148   0.000000   0.000000   0.000000
   12  S  2  S   -0.024081   0.014879   0.000000   0.000000   0.000000
   13  S  2  X   -0.688701   0.689878   0.000000   0.000000   0.000000
   14  S  2  Y    0.000000   0.000000   0.692275  -0.028887  -0.568365
   15  S  2  Z    0.000000   0.000000   0.028887   0.692275   0.396843
   16  S  2  X   -0.076501   0.070233   0.000000   0.000000   0.000000
   17  S  2  Y    0.000000   0.000000   0.053780  -0.002244  -0.042714
   18  S  2  Z    0.000000   0.000000   0.002244   0.053780   0.029823
   19  S  3  S   -0.005282  -0.004861   0.000000   0.000000   0.000000
   20  S  3  S    0.014301   0.013148   0.000000   0.000000   0.000000
   21  S  3  S   -0.024081  -0.014879   0.000000   0.000000   0.000000
   22  S  3  X    0.688701   0.689878   0.000000   0.000000   0.000000
   23  S  3  Y    0.000000   0.000000   0.692275  -0.028887   0.568365
   24  S  3  Z    0.000000   0.000000   0.028887   0.692275  -0.396843
   25  S  3  X    0.076501   0.070233   0.000000   0.000000   0.000000
   26  S  3  Y    0.000000   0.000000   0.053780  -0.002244   0.042714
   27  S  3  Z    0.000000   0.000000   0.002244   0.053780  -0.029823

                     11         12         13         14         15
                   -6.1193    -1.0582    -0.9213    -0.5662    -0.4803
                     A          A          A          A          A   
    1  C  1  S   -0.000000  -0.227172  -0.000000   0.154917   0.000000
    2  C  1  S   -0.000000   0.666025  -0.000000  -0.381126   0.000000
    3  C  1  S   -0.000000  -0.132365  -0.000000  -0.171816   0.000000
    4  C  1  X   -0.000000  -0.000000   0.363523   0.000000  -0.371275
    5  C  1  Y   -0.000000  -0.000000  -0.000000   0.000000   0.000000
    6  C  1  Z   -0.000000  -0.000000  -0.000000   0.000000   0.000000
    7  C  1  X   -0.000000  -0.000000   0.017398   0.000000  -0.156090
    8  C  1  Y   -0.000000  -0.000000  -0.000000   0.000000   0.000000
    9  C  1  Z   -0.000000  -0.000000  -0.000000   0.000000   0.000000
   10  S  2  S   -0.000000   0.045757  -0.059832   0.050225  -0.032556
   11  S  2  S   -0.000000  -0.160164   0.211086  -0.177656   0.114926
   12  S  2  S   -0.000000   0.402913  -0.527278   0.628202  -0.490861
   13  S  2  X   -0.000000  -0.064324   0.055610   0.107798  -0.153029
   14  S  2  Y   -0.396843  -0.000000  -0.000000   0.000000   0.000000
   15  S  2  Z   -0.568365  -0.000000  -0.000000   0.000000   0.000000
   16  S  2  X   -0.000000   0.144451  -0.109945  -0.290244   0.404650
   17  S  2  Y   -0.029823  -0.000000  -0.000000   0.000000   0.000000
   18  S  2  Z   -0.042714  -0.000000  -0.000000   0.000000   0.000000
   19  S  3  S   -0.000000   0.045757   0.059832   0.050225   0.032556
   20  S  3  S   -0.000000  -0.160164  -0.211086  -0.177656  -0.114926
   21  S  3  S   -0.000000   0.402913   0.527278   0.628202   0.490861
   22  S  3  X   -0.000000   0.064324   0.055610  -0.107798  -0.153029
   23  S  3  Y    0.396843  -0.000000  -0.000000   0.000000   0.000000
   24  S  3  Z    0.568365  -0.000000  -0.000000   0.000000   0.000000
   25  S  3  X   -0.000000  -0.144451  -0.109945   0.290244   0.404650
   26  S  3  Y    0.029823  -0.000000  -0.000000   0.000000   0.000000
   27  S  3  Z    0.042714  -0.000000  -0.000000   0.000000   0.000000

                     16         17         18         19         20
                   -0.4640    -0.4640    -0.2982    -0.2982     0.1725
                     A          A          A          A          A   
    1  C  1  S    0.000000  -0.000000   0.000000  -0.000000  -0.000000
    2  C  1  S    0.000000  -0.000000   0.000000  -0.000000  -0.000000
    3  C  1  S    0.000000  -0.000000   0.000000  -0.000000  -0.000000
    4  C  1  X    0.000000  -0.000000   0.000000  -0.000000  -0.000000
    5  C  1  Y    0.443683   0.051974   0.000000  -0.000000   0.634962
    6  C  1  Z   -0.051974   0.443683   0.000000  -0.000000   0.055230
    7  C  1  X    0.000000  -0.000000   0.000000  -0.000000  -0.000000
    8  C  1  Y    0.104082   0.012193   0.000000  -0.000000   0.252073
    9  C  1  Z   -0.012193   0.104082   0.000000  -0.000000   0.021926
   10  S  2  S    0.000000  -0.000000   0.000000  -0.000000  -0.000000
   11  S  2  S    0.000000  -0.000000   0.000000  -0.000000  -0.000000
   12  S  2  S    0.000000  -0.000000   0.000000  -0.000000  -0.000000
   13  S  2  X    0.000000  -0.000000   0.000000  -0.000000  -0.000000
   14  S  2  Y   -0.158926  -0.018617  -0.219239   0.012015   0.155115
   15  S  2  Z    0.018617  -0.158926  -0.012015  -0.219239   0.013492
   16  S  2  X    0.000000  -0.000000   0.000000  -0.000000  -0.000000
   17  S  2  Y    0.500571   0.058638   0.726619  -0.039822  -0.556194
   18  S  2  Z   -0.058638   0.500571   0.039822   0.726619  -0.048379
   19  S  3  S    0.000000  -0.000000   0.000000  -0.000000  -0.000000
   20  S  3  S    0.000000  -0.000000   0.000000  -0.000000  -0.000000
   21  S  3  S    0.000000  -0.000000   0.000000  -0.000000  -0.000000
   22  S  3  X    0.000000  -0.000000   0.000000  -0.000000  -0.000000
   23  S  3  Y   -0.158926  -0.018617   0.219239  -0.012015   0.155115
   24  S  3  Z    0.018617  -0.158926   0.012015   0.219239   0.013492
   25  S  3  X    0.000000  -0.000000   0.000000  -0.000000  -0.000000
   26  S  3  Y    0.500571   0.058638  -0.726619   0.039822  -0.556194
   27  S  3  Z   -0.058638   0.500571  -0.039822  -0.726619  -0.048379

                     21         22         23         24         25
                    0.1725     0.3849     0.6794     0.9899     2.5925
                     A          A          A          A          A   
    1  C  1  S   -0.000000  -0.176255   0.000000   0.455083   0.000000
    2  C  1  S   -0.000000  -0.485473   0.000000 -10.180294   0.000000
    3  C  1  S   -0.000000   1.909114   0.000000  10.659889   0.000000
    4  C  1  X   -0.000000   0.000000   0.529357  -0.000000  -4.028344
    5  C  1  Y   -0.055230   0.000000   0.000000  -0.000000   0.000000
    6  C  1  Z    0.634962   0.000000   0.000000  -0.000000   0.000000
    7  C  1  X   -0.000000   0.000000   0.908909  -0.000000   4.322561
    8  C  1  Y   -0.021926   0.000000   0.000000  -0.000000   0.000000
    9  C  1  Z    0.252073   0.000000   0.000000  -0.000000   0.000000
   10  S  2  S   -0.000000  -0.024597   0.021759  -0.001119   0.006656
   11  S  2  S   -0.000000   0.086092  -0.078624  -0.005502  -0.042665
   12  S  2  S   -0.000000  -0.553790   0.614136  -0.503504   0.075320
   13  S  2  X   -0.000000   0.223395  -0.192109   0.026333  -0.009290
   14  S  2  Y   -0.013492   0.000000   0.000000  -0.000000   0.000000
   15  S  2  Z    0.155115   0.000000   0.000000  -0.000000   0.000000
   16  S  2  X   -0.000000  -0.921219   0.932864  -0.269420   0.277576
   17  S  2  Y    0.048379   0.000000   0.000000  -0.000000   0.000000
   18  S  2  Z   -0.556194   0.000000   0.000000  -0.000000   0.000000
   19  S  3  S   -0.000000  -0.024597  -0.021759  -0.001119  -0.006656
   20  S  3  S   -0.000000   0.086092   0.078624  -0.005502   0.042665
   21  S  3  S   -0.000000  -0.553790  -0.614136  -0.503504  -0.075320
   22  S  3  X   -0.000000  -0.223395  -0.192109  -0.026333  -0.009290
   23  S  3  Y   -0.013492   0.000000   0.000000  -0.000000   0.000000
   24  S  3  Z    0.155115   0.000000   0.000000  -0.000000   0.000000
   25  S  3  X   -0.000000   0.921219   0.932864   0.269420   0.277576
   26  S  3  Y    0.048379   0.000000   0.000000  -0.000000   0.000000
   27  S  3  Z   -0.556194   0.000000   0.000000  -0.000000   0.000000

                     26         27
                    2.6963     2.6963
                     A          A   
    1  C  1  S    0.000000  -0.000000
    2  C  1  S    0.000000  -0.000000
    3  C  1  S    0.000000  -0.000000
    4  C  1  X    0.000000  -0.000000
    5  C  1  Y    1.462901  -3.637755
    6  C  1  Z   -3.637755  -1.462901
    7  C  1  X    0.000000  -0.000000
    8  C  1  Y   -1.485690   3.694425
    9  C  1  Z    3.694425   1.485690
   10  S  2  S    0.000000  -0.000000
   11  S  2  S    0.000000  -0.000000
   12  S  2  S    0.000000  -0.000000
   13  S  2  X    0.000000  -0.000000
   14  S  2  Y   -0.000933   0.002319
   15  S  2  Z    0.002319   0.000933
   16  S  2  X    0.000000  -0.000000
   17  S  2  Y   -0.003804   0.009459
   18  S  2  Z    0.009459   0.003804
   19  S  3  S    0.000000  -0.000000
   20  S  3  S    0.000000  -0.000000
   21  S  3  S    0.000000  -0.000000
   22  S  3  X    0.000000  -0.000000
   23  S  3  Y   -0.000933   0.002319
   24  S  3  Z    0.002319   0.000933
   25  S  3  X    0.000000  -0.000000
   26  S  3  Y   -0.003804   0.009459
   27  S  3  Z    0.009459   0.003804
 ...... END OF RHF CALCULATION ......
 STEP CPU TIME =     0.01 TOTAL CPU TIME =        0.1 (    0.0 MIN)
 TOTAL WALL CLOCK TIME=        0.1 SECONDS, CPU UTILIZATION IS  90.00%

     ----------------------------------------------------------------
     PROPERTY VALUES FOR THE RHF   SELF-CONSISTENT FIELD WAVEFUNCTION
     ----------------------------------------------------------------

          -----------------
          ENERGY COMPONENTS
          -----------------

         WAVEFUNCTION NORMALIZATION =       1.0000000000

                ONE ELECTRON ENERGY =   -1325.7686571290
                TWO ELECTRON ENERGY =     417.6626449379
           NUCLEAR REPULSION ENERGY =     106.9675475732
                                      ------------------
                       TOTAL ENERGY =    -801.1384646179

 ELECTRON-ELECTRON POTENTIAL ENERGY =     417.6626449379
  NUCLEUS-ELECTRON POTENTIAL ENERGY =   -2102.6597029093
   NUCLEUS-NUCLEUS POTENTIAL ENERGY =     106.9675475732
                                      ------------------
             TOTAL POTENTIAL ENERGY =   -1578.0295103982
               TOTAL KINETIC ENERGY =     776.8910457803
                 VIRIAL RATIO (V/T) =       2.0312108358

  ...... PI ENERGY ANALYSIS ......

 ENERGY ANALYSIS:
            FOCK ENERGY=   -490.4433692454
          BARE H ENERGY=  -1325.7686571290
     ELECTRONIC ENERGY =   -908.1060131872
         KINETIC ENERGY=    776.8910457803
          N-N REPULSION=    106.9675475732
           TOTAL ENERGY=   -801.1384656140
        SIGMA PART(1+2)=   -694.5036672064
               (K,V1,2)=    636.6786393778  -1587.2477281545    256.0654215704
           PI PART(1+2)=   -213.6023459808
               (K,V1,2)=    140.2124064025   -515.4119747548    161.5972223714
  SIGMA SKELETON, ERROR=   -587.5361196332     -0.0000000000
             MIXED PART= 0.00000E+00 0.00000E+00 0.00000E+00 0.00000E+00
 ...... END OF PI ENERGY ANALYSIS ......

          ---------------------------------------
          MULLIKEN AND LOWDIN POPULATION ANALYSES
          ---------------------------------------

     ATOMIC MULLIKEN POPULATION IN EACH MOLECULAR ORBITAL

                      1          2          3          4          5

                  2.000000   2.000000   2.000000   2.000000   2.000000

    1             0.000069   0.000035   1.998444  -0.007726  -0.004103
    2             0.999965   0.999982   0.000778   1.003863   1.002051
    3             0.999965   0.999982   0.000778   1.003863   1.002051

                      6          7          8          9         10

                  2.000000   2.000000   2.000000   2.000000   2.000000

    1            -0.007637  -0.005541  -0.000500  -0.000500   0.000000
    2             1.003819   1.002770   1.000250   1.000250   1.000000
    3             1.003819   1.002770   1.000250   1.000250   1.000000

                     11         12         13         14         15

                  2.000000   2.000000   2.000000   2.000000   2.000000

    1             0.000000   0.903954   0.608076   0.382532   0.506583
    2             1.000000   0.548023   0.695962   0.808734   0.746708
    3             1.000000   0.548023   0.695962   0.808734   0.746708

                     16         17         18         19

                  2.000000   2.000000   2.000000   2.000000

    1             0.813533   0.813533   0.000000   0.000000
    2             0.593233   0.593233   1.000000   1.000000
    3             0.593233   0.593233   1.000000   1.000000

               ----- POPULATIONS IN EACH AO -----
                             MULLIKEN      LOWDIN
              1  C  1  S      1.95878     1.97436
              2  C  1  S      1.65273     0.77155
              3  C  1  S     -0.34188     0.62972
              4  C  1  X      0.92830     0.69416
              5  C  1  Y      0.66110     0.49514
              6  C  1  Z      0.66110     0.49514
              7  C  1  X      0.17675     0.58754
              8  C  1  Y      0.15193     0.37625
              9  C  1  Z      0.15193     0.37625
             10  S  2  S      1.99983     1.99976
             11  S  2  S      1.99609     1.99644
             12  S  2  S      1.90617     1.78383
             13  S  2  X      1.96570     1.95923
             14  S  2  Y      1.98953     1.98428
             15  S  2  Z      1.98953     1.98428
             16  S  2  X      0.94486     0.93207
             17  S  2  Y      1.60396     1.58002
             18  S  2  Z      1.60396     1.58002
             19  S  3  S      1.99983     1.99976
             20  S  3  S      1.99609     1.99644
             21  S  3  S      1.90617     1.78383
             22  S  3  X      1.96570     1.95923
             23  S  3  Y      1.98953     1.98428
             24  S  3  Z      1.98953     1.98428
             25  S  3  X      0.94486     0.93207
             26  S  3  Y      1.60396     1.58002
             27  S  3  Z      1.60396     1.58002

          ----- MULLIKEN ATOMIC OVERLAP POPULATIONS -----
          (OFF-DIAGONAL ELEMENTS NEED TO BE MULTIPLIED BY 2)

             1           2           3

    1    5.1624064
    2    0.4191738  15.5917671
    3    0.4191738  -0.0113178  15.5917671

          TOTAL MULLIKEN AND LOWDIN ATOMIC POPULATIONS
       ATOM         MULL.POP.    CHARGE          LOW.POP.     CHARGE
    1 C             6.000754   -0.000754         6.400118   -0.400118
    2 S            15.999623    0.000377        15.799941    0.200059
    3 S            15.999623    0.000377        15.799941    0.200059

          -------------------------------
          BOND ORDER AND VALENCE ANALYSIS     BOND ORDER THRESHOLD=0.050
          -------------------------------

                   BOND                       BOND                       BOND
  ATOM PAIR DIST  ORDER      ATOM PAIR DIST  ORDER      ATOM PAIR DIST  ORDER
    1   2  1.583  1.896        1   3  1.583  1.896        2   3  3.166  0.347

                       TOTAL       BONDED        FREE
      ATOM            VALENCE     VALENCE     VALENCE
    1 C                 3.793       3.793       0.000
    2 S                 2.244       2.244       0.000
    3 S                 2.244       2.244      -0.000

          ---------------------
          ELECTROSTATIC MOMENTS
          ---------------------

 POINT   1           X           Y           Z (BOHR)    CHARGE
                 0.000000    0.000000    0.000000        0.00 (A.U.)
         DX          DY          DZ         /D/  (DEBYE)
    -0.000000    0.000000    0.000000    0.000000
 ...... END OF PROPERTY EVALUATION ......
 STEP CPU TIME =     0.01 TOTAL CPU TIME =        0.1 (    0.0 MIN)
 TOTAL WALL CLOCK TIME=        0.1 SECONDS, CPU UTILIZATION IS 100.00%
               580000  WORDS OF DYNAMIC MEMORY USED
 EXECUTION OF GAMESS TERMINATED NORMALLY Fri Jul 17 16:52:10 2015
 DDI: 263624 bytes (0.3 MB / 0 MWords) used by master data server.

 ----------------------------------------
 CPU timing information for all processes
 ========================================
 0: 0.35 + 0.75 = 0.111
 ----------------------------------------
 ddikick.x: exited gracefully.
----- accounting info -----
Files used on the master node euler were:
-rw-rw-r-- 1 simon simon    1755 Jul 17 16:52 /home/simon/gamess_tmp/gamess.F05
-rw-rw-r-- 1 simon simon  360032 Jul 17 16:52 /home/simon/gamess_tmp/gamess.F08
-rw-rw-r-- 1 simon simon 1537840 Jul 17 16:52 /home/simon/gamess_tmp/gamess.F10
Fri Jul 17 16:52:13 EDT 2015
0.0u 0.0s 0:03.19 2.1% 0+0k 0+16io 0pf+0w
