----- GAMESS execution script 'rungms' -----
This job is running on host localhost.localdomain
under operating system Linux at Sat Jan 17 14:50:56 EST 2015
Available scratch disk space (Kbyte units) at beginning of the job is
Filesystem     1K-blocks  Used Available Use% Mounted on
tmpfs            1871684    28   1871656   1% /tmp
GAMESS temporary binary files will be written to /tmp/schuurm
GAMESS supplementary output files will be written to /home/schuurm/software/ADC/test/gamess/rhf/sto2g/scr
GAMESS external basis set file: /home/schuurm/software/ADC/test/gamess/rhf/sto2g/basis
Copying input file gamess.inp to your run's scratch directory...

 Distributed Data Interface kickoff program.
 Initiating 1 compute processes on 1 nodes to run the following command:
 /home/schuurm/software/gamess/gamess.00.x gamess 

          ******************************************************
          *         GAMESS VERSION =  1 MAY 2013 (R1)          *
          *             FROM IOWA STATE UNIVERSITY             *
          * M.W.SCHMIDT, K.K.BALDRIDGE, J.A.BOATZ, S.T.ELBERT, *
          *   M.S.GORDON, J.H.JENSEN, S.KOSEKI, N.MATSUNAGA,   *
          *          K.A.NGUYEN, S.J.SU, T.L.WINDUS,           *
          *       TOGETHER WITH M.DUPUIS, J.A.MONTGOMERY       *
          *         J.COMPUT.CHEM.  14, 1347-1363(1993)        *
          **************** 64 BIT LINUX VERSION ****************

  SINCE 1993, STUDENTS AND POSTDOCS WORKING AT IOWA STATE UNIVERSITY
  AND ALSO IN THEIR VARIOUS JOBS AFTER LEAVING ISU HAVE MADE IMPORTANT
  CONTRIBUTIONS TO THE CODE:
     IVANA ADAMOVIC, CHRISTINE AIKENS, YURI ALEXEEV, POOJA ARORA,
     ANDREY ASADCHEV, ROB BELL, PRADIPTA BANDYOPADHYAY, JONATHAN BENTZ,
     BRETT BODE, GALINA CHABAN, WEI CHEN, CHEOL HO CHOI, PAUL DAY,
     ALBERT DEFUSCO, TIM DUDLEY, DMITRI FEDOROV, GRAHAM FLETCHER,
     MARK FREITAG, KURT GLAESEMANN, DAN KEMP, GRANT MERRILL,
     NORIYUKI MINEZAWA, JONATHAN MULLIN, TAKESHI NAGATA,
     SEAN NEDD, HEATHER NETZLOFF, BOSILJKA NJEGIC, RYAN OLSON, MIKE PAK,
     JIM SHOEMAKER, LYUDMILA SLIPCHENKO, SAROM SOK, JIE SONG,
     TETSUYA TAKETSUGU, SIMON WEBB, SOOHAENG YOO, FEDERICO ZAHARIEV

  ADDITIONAL CODE HAS BEEN PROVIDED BY COLLABORATORS IN OTHER GROUPS:
     IOWA STATE UNIVERSITY:
          JOE IVANIC, LAIMUTIS BYTAUTAS, KLAUS RUEDENBERG
     UNIVERSITY OF TOKYO: KIMIHIKO HIRAO, TAKAHITO NAKAJIMA,
          TAKAO TSUNEDA, MUNEAKI KAMIYA, SUSUMU YANAGISAWA,
          KIYOSHI YAGI, MAHITO CHIBA, SEIKEN TOKURA, NAOAKI KAWAKAMI
     UNIVERSITY OF AARHUS: FRANK JENSEN
     UNIVERSITY OF IOWA: VISVALDAS KAIRYS, HUI LI
     NATIONAL INST. OF STANDARDS AND TECHNOLOGY: WALT STEVENS, DAVID GARMER
     UNIVERSITY OF PISA: BENEDETTA MENNUCCI, JACOPO TOMASI
     UNIVERSITY OF MEMPHIS: HENRY KURTZ, PRAKASHAN KORAMBATH
     UNIVERSITY OF ALBERTA: TOBY ZENG, MARIUSZ KLOBUKOWSKI
     UNIVERSITY OF NEW ENGLAND: MARK SPACKMAN
     MIE UNIVERSITY: HIROAKI UMEDA
     MICHIGAN STATE UNIVERSITY:
          KAROL KOWALSKI, MARTA WLOCH, JEFFREY GOUR, JESSE LUTZ,
          WEI LI, PIOTR PIECUCH
     UNIVERSITY OF SILESIA: MONIKA MUSIAL, STANISLAW KUCHARSKI
     FACULTES UNIVERSITAIRES NOTRE-DAME DE LA PAIX:
          OLIVIER QUINET, BENOIT CHAMPAGNE
     UNIVERSITY OF CALIFORNIA - SANTA BARBARA: BERNARD KIRTMAN
     INSTITUTE FOR MOLECULAR SCIENCE:
          KAZUYA ISHIMURA, MICHIO KATOUDA, AND SHIGERU NAGASE
     UNIVERSITY OF NOTRE DAME: DAN CHIPMAN
     KYUSHU UNIVERSITY:
          HARUYUKI NAKANO,
          FENG LONG GU, JACEK KORCHOWIEC, MARCIN MAKOWSKI, AND YURIKO AOKI,
          HIROTOSHI MORI AND EISAKU MIYOSHI
     PENNSYLVANIA STATE UNIVERSITY:
          TZVETELIN IORDANOV, CHET SWALINA, JONATHAN SKONE,
          SHARON HAMMES-SCHIFFER
     WASEDA UNIVERSITY:
          MASATO KOBAYASHI, TOMOKO AKAMA, TSUGUKI TOUMA,
          TAKESHI YOSHIKAWA, YASUHIRO IKABATA, HIROMI NAKAI
     NANJING UNIVERSITY: SHUHUA LI
     UNIVERSITY OF NEBRASKA:
          PEIFENG SU, DEJUN SI, NANDUN THELLAMUREGE, YALI WANG, HUI LI
     UNIVERSITY OF ZURICH:
          ROBERTO PEVERATI, KIM BALDRIDGE
     N. COPERNICUS UNIVERSITY AND JACKSON STATE UNIVERSITY:
          MARIA BARYSZ

 EXECUTION OF GAMESS BEGUN Sat Jan 17 14:50:56 2015

            ECHO OF THE FIRST FEW INPUT CARDS -
 INPUT CARD> $CONTRL SCFTYP=RHF RUNTYP=ENERGY COORD=UNIQUE UNITS=BOHR NZVAR=0 $END          
 INPUT CARD> $SYSTEM TIMLIM=1 $END                                                          
 INPUT CARD> $STATPT OPTTOL=1.0E-5  $END                                                    
 INPUT CARD> $BASIS  GBASIS=STO2G  EXTFIL=.TRUE.   $END                                     
 INPUT CARD> $GUESS  GUESS=HUCKEL $END                                                      
 INPUT CARD> $DATA                                                                          
 INPUT CARD> CS2 test energy                                                                
 INPUT CARD> C1                                                                             
 INPUT CARD> C           6.0   0.00000000     0.00000000     0.00000000                     
 INPUT CARD> S          16.0  -2.99156153     0.00000000     0.00000000                     
 INPUT CARD> S          16.0   2.99156153     0.00000000     0.00000000                     
 INPUT CARD> $END                                                                           
    1000000 WORDS OF MEMORY AVAILABLE

     $BASIS REQUESTS READING THE "STO2G   " BASIS SET FROM AN EXTERNAL FILE


     RUN TITLE
     ---------
  CS2 test energy                                                                

 THE POINT GROUP OF THE MOLECULE IS C1      
 THE ORDER OF THE PRINCIPAL AXIS IS     0

 THE EXTERNAL BASIS SET FILE BEING READ IS
     "/home/schuurm/software/ADC/test/gamess/rhf/sto2g/basis"

 ATOM      ATOMIC                      COORDINATES (BOHR)
           CHARGE         X                   Y                   Z
 C           6.0     0.0000000000        0.0000000000        0.0000000000
 S          16.0    -2.9915615300        0.0000000000        0.0000000000
 S          16.0     2.9915615300        0.0000000000        0.0000000000

          INTERNUCLEAR DISTANCES (ANGS.)
          ------------------------------

                1 C          2 S          3 S     

   1 C       0.0000000    1.5830663 *  1.5830663 *
   2 S       1.5830663 *  0.0000000    3.1661326  
   3 S       1.5830663 *  3.1661326    0.0000000  

  * ... LESS THAN  3.000


     ATOMIC BASIS SET
     ----------------
 THE CONTRACTED PRIMITIVE FUNCTIONS HAVE BEEN UNNORMALIZED
 THE CONTRACTED BASIS FUNCTIONS ARE NOW NORMALIZED TO UNITY

  SHELL TYPE  PRIMITIVE        EXPONENT          CONTRACTION COEFFICIENT(S)

 C         

      1   S       1            27.3850330    0.430128498092
      1   S       2             4.8745221    0.678913531145

      2   S       3             1.1367482    0.049471769008
      2   S       4             0.2883094    0.963782408150

      3   P       5             1.1367482    0.511540707377
      3   P       6             0.2883094    0.612819895254

 S         

      4   S       7           203.8580090    0.430127990466
      4   S       8            36.2866230    0.678913984951

      5   S       9            12.8814430    0.049472011710
      5   S      10             3.2670740    0.963782228133

      6   S      11             0.7225530   -0.298399086217
      6   S      12             0.2479010    1.227983354805

      7   P      13            12.8814430    0.511540824153
      7   P      14             3.2670740    0.612819789337

      8   P      15             0.7225530    0.348047123549
      8   P      16             0.2479010    0.722252256383

 S         

      9   S      17           203.8580090    0.430127990466
      9   S      18            36.2866230    0.678913984951

     10   S      19            12.8814430    0.049472011710
     10   S      20             3.2670740    0.963782228133

     11   S      21             0.7225530   -0.298399086217
     11   S      22             0.2479010    1.227983354805

     12   P      23            12.8814430    0.511540824153
     12   P      24             3.2670740    0.612819789337

     13   P      25             0.7225530    0.348047123549
     13   P      26             0.2479010    0.722252256383

 TOTAL NUMBER OF BASIS SET SHELLS             =   13
 NUMBER OF CARTESIAN GAUSSIAN BASIS FUNCTIONS =   23
 NUMBER OF ELECTRONS                          =   38
 CHARGE OF MOLECULE                           =    0
 SPIN MULTIPLICITY                            =    1
 NUMBER OF OCCUPIED ORBITALS (ALPHA)          =   19
 NUMBER OF OCCUPIED ORBITALS (BETA )          =   19
 TOTAL NUMBER OF ATOMS                        =    3
 THE NUCLEAR REPULSION ENERGY IS      106.9675474801

 THIS MOLECULE IS RECOGNIZED AS BEING LINEAR,
 ORBITAL LZ DEGENERACY TOLERANCE ETOLLZ= 1.00E-06

     $CONTRL OPTIONS
     ---------------
 SCFTYP=RHF          RUNTYP=ENERGY       EXETYP=RUN     
 MPLEVL=       0     CITYP =NONE         CCTYP =NONE         VBTYP =NONE    
 DFTTYP=NONE         TDDFT =NONE    
 MULT  =       1     ICHARG=       0     NZVAR =       0     COORD =UNIQUE  
 PP    =NONE         RELWFN=NONE         LOCAL =NONE         NUMGRD=       F
 ISPHER=      -1     NOSYM =       0     MAXIT =      30     UNITS =BOHR    
 PLTORB=       F     MOLPLT=       F     AIMPAC=       F     FRIEND=        
 NPRINT=       7     IREST =       0     GEOM  =INPUT   
 NORMF =       0     NORMP =       0     ITOL  =      20     ICUT  =       9
 INTTYP=BEST         GRDTYP=BEST         QMTTOL= 1.0E-06

     $SYSTEM OPTIONS
     ---------------
  REPLICATED MEMORY=     1000000 WORDS (ON EVERY NODE).
 DISTRIBUTED MEMDDI=           0 MILLION WORDS IN AGGREGATE,
 MEMDDI DISTRIBUTED OVER   1 PROCESSORS IS           0 WORDS/PROCESSOR.
 TOTAL MEMORY REQUESTED ON EACH PROCESSOR=     1000000 WORDS.
 TIMLIM=           1.00 MINUTES, OR       0.0 DAYS.
 PARALL= F  BALTYP=  DLB     KDIAG=    0  COREFL= F
 MXSEQ2=     300 MXSEQ3=     150

          ----------------
          PROPERTIES INPUT
          ----------------

     MOMENTS            FIELD           POTENTIAL          DENSITY
 IEMOM =       1   IEFLD =       0   IEPOT =       0   IEDEN =       0
 WHERE =COMASS     WHERE =NUCLEI     WHERE =NUCLEI     WHERE =NUCLEI  
 OUTPUT=BOTH       OUTPUT=BOTH       OUTPUT=BOTH       OUTPUT=BOTH    
 IEMINT=       0   IEFINT=       0                     IEDINT=       0
                                                       MORB  =       0
          EXTRAPOLATION IN EFFECT
          SOSCF IN EFFECT
 ORBITAL PRINTING OPTION: NPREO=     1    23     2     1

     -------------------------------
     INTEGRAL TRANSFORMATION OPTIONS
     -------------------------------
     NWORD  =            0
     CUTOFF = 1.0E-09     MPTRAN =       0
     DIRTRF =       F     AOINTS =DUP     

          ----------------------
          INTEGRAL INPUT OPTIONS
          ----------------------
 NOPK  =       1 NORDER=       0 SCHWRZ=       F

     ------------------------------------------
     THE POINT GROUP IS C1 , NAXIS= 0, ORDER= 1
     ------------------------------------------

     DIMENSIONS OF THE SYMMETRY SUBSPACES ARE
 A   =   23

 ..... DONE SETTING UP THE RUN .....
 STEP CPU TIME =     0.00 TOTAL CPU TIME =        0.0 (    0.0 MIN)
 TOTAL WALL CLOCK TIME=        0.0 SECONDS, CPU UTILIZATION IS   0.00%

          ********************
          1 ELECTRON INTEGRALS
          ********************
 ...... END OF ONE-ELECTRON INTEGRALS ......
 STEP CPU TIME =     0.00 TOTAL CPU TIME =        0.0 (    0.0 MIN)
 TOTAL WALL CLOCK TIME=        0.0 SECONDS, CPU UTILIZATION IS   0.00%

          -------------
          GUESS OPTIONS
          -------------
          GUESS =HUCKEL            NORB  =       0          NORDER=       0
          MIX   =       F          PRTMO =       F          PUNMO =       F
          TOLZ  = 1.0E-08          TOLE  = 1.0E-05
          SYMDEN=       F          PURIFY=       F

 INITIAL GUESS ORBITALS GENERATED BY HUCKEL   ROUTINE.
 HUCKEL GUESS REQUIRES      8265 WORDS.

 SYMMETRIES FOR INITIAL GUESS ORBITALS FOLLOW.   BOTH SET(S).
    19 ORBITALS ARE OCCUPIED (   11 CORE ORBITALS).
    12=A       13=A       14=A       15=A       16=A       17=A       18=A   
    19=A       20=A       21=A       22=A       23=A   
 ...... END OF INITIAL ORBITAL SELECTION ......
 STEP CPU TIME =     0.00 TOTAL CPU TIME =        0.0 (    0.0 MIN)
 TOTAL WALL CLOCK TIME=        0.0 SECONDS, CPU UTILIZATION IS   0.00%

                    ----------------------
                    AO INTEGRAL TECHNOLOGY
                    ----------------------
     S,P,L SHELL ROTATED AXIS INTEGRALS, REPROGRAMMED BY
        KAZUYA ISHIMURA (IMS) AND JOSE SIERRA (SYNSTAR).
     S,P,D,L SHELL ROTATED AXIS INTEGRALS PROGRAMMED BY
        KAZUYA ISHIMURA (INSTITUTE FOR MOLECULAR SCIENCE).
     S,P,D,F,G SHELL TO TOTAL QUARTET ANGULAR MOMENTUM SUM 5,
        ERIC PROGRAM BY GRAHAM FLETCHER (ELORET AND NASA ADVANCED
        SUPERCOMPUTING DIVISION, AMES RESEARCH CENTER).
     S,P,D,F,G,L SHELL GENERAL RYS QUADRATURE PROGRAMMED BY
        MICHEL DUPUIS (PACIFIC NORTHWEST NATIONAL LABORATORY).

          --------------------
          2 ELECTRON INTEGRALS
          --------------------

 THE -PK- OPTION IS OFF, THE INTEGRALS ARE NOT IN SUPERMATRIX FORM.
 STORING   15000 INTEGRALS/RECORD ON DISK, USING 12 BYTES/INTEGRAL.
 TWO ELECTRON INTEGRAL EVALUATION REQUIRES   89447 WORDS OF MEMORY.
 II,JST,KST,LST =  1  1  1  1 NREC =         1 INTLOC =    1
 II,JST,KST,LST =  2  1  1  1 NREC =         1 INTLOC =    2
 II,JST,KST,LST =  3  1  1  1 NREC =         1 INTLOC =    7
 II,JST,KST,LST =  4  1  1  1 NREC =         1 INTLOC =   34
 II,JST,KST,LST =  5  1  1  1 NREC =         1 INTLOC =   72
 II,JST,KST,LST =  6  1  1  1 NREC =         1 INTLOC =  146
 II,JST,KST,LST =  7  1  1  1 NREC =         1 INTLOC =  273
 II,JST,KST,LST =  8  1  1  1 NREC =         1 INTLOC =  684
 II,JST,KST,LST =  9  1  1  1 NREC =         1 INTLOC = 1547
 II,JST,KST,LST = 10  1  1  1 NREC =         1 INTLOC = 1831
 II,JST,KST,LST = 11  1  1  1 NREC =         1 INTLOC = 2265
 II,JST,KST,LST = 12  1  1  1 NREC =         1 INTLOC = 3113
 II,JST,KST,LST = 13  1  1  1 NREC =         1 INTLOC = 4868
 TOTAL NUMBER OF NONZERO TWO-ELECTRON INTEGRALS =                8556
          1 INTEGRAL RECORDS WERE STORED ON DISK FILE  8.
  ...... END OF TWO-ELECTRON INTEGRALS .....
 STEP CPU TIME =     0.04 TOTAL CPU TIME =        0.0 (    0.0 MIN)
 TOTAL WALL CLOCK TIME=        0.0 SECONDS, CPU UTILIZATION IS 100.00%

          --------------------------
                 RHF SCF CALCULATION
          --------------------------

     NUCLEAR ENERGY =       106.9675474801
     MAXIT =   30     NPUNCH=    2
     EXTRAP=T  DAMP=F  SHIFT=F  RSTRCT=F  DIIS=F  DEM=F  SOSCF=T
     DENSITY MATRIX CONV=  1.00E-05
     SOSCF WILL OPTIMIZE      76 ORBITAL ROTATIONS, SOGTOL=   0.250
     MEMORY REQUIRED FOR RHF ITERS=     34329 WORDS.

 ITER EX DEM     TOTAL ENERGY        E CHANGE  DENSITY CHANGE     ORB. GRAD
   1  0  0     -800.8706143232  -800.8706143232   0.366077877   0.000000000
          ---------------START SECOND ORDER SCF---------------
   2  1  0     -801.0757228497    -0.2051085265   0.138401739   0.041437470
   3  2  0     -801.0877951614    -0.0120723117   0.121709249   0.033362477
   4  3  0     -801.0925164080    -0.0047212466   0.013488449   0.006932410
   5  4  0     -801.0926578736    -0.0001414657   0.003304598   0.001513096
   6  5  0     -801.0926651622    -0.0000072886   0.000298530   0.000091196
   7  6  0     -801.0926651974    -0.0000000352   0.000092650   0.000015961
   8  7  0     -801.0926651991    -0.0000000016   0.000003837   0.000001902
   9  8  0     -801.0926651991    -0.0000000000   0.000000434   0.000000250

          -----------------
          DENSITY CONVERGED
          -----------------
     TIME TO FORM FOCK OPERATORS=       0.0 SECONDS (       0.0 SEC/ITER)
     TIME TO SOLVE SCF EQUATIONS=       0.0 SECONDS (       0.0 SEC/ITER)

 FINAL RHF ENERGY IS     -801.0926651991 AFTER   9 ITERATIONS

 LZ VALUE ANALYSIS FOR THE MOS
 ----------------------------------------
 MO     1 (    1) HAS LZ(WEIGHT)= 0.00(100.0%) 
 MO     2 (    2) HAS LZ(WEIGHT)= 0.00(100.0%) 
 MO     3 (    3) HAS LZ(WEIGHT)= 0.00(100.0%) 
 MO     4 (    4) HAS LZ(WEIGHT)= 0.00(100.0%) 
 MO     5 (    5) HAS LZ(WEIGHT)= 0.00(100.0%) 
 MO     6 (    6) HAS LZ(WEIGHT)= 0.00(100.0%) 
 MO     7 (    7) HAS LZ(WEIGHT)= 0.00(100.0%) 
 MO     8 (    8) HAS LZ(WEIGHT)= 0.00(100.0%) 
 MO     9 (    8) HAS LZ(WEIGHT)= 0.00(100.0%) 
 MO    10 (    9) HAS LZ(WEIGHT)= 0.00(100.0%) 
 MO    11 (    9) HAS LZ(WEIGHT)= 0.00(100.0%) 
 MO    12 (   10) HAS LZ(WEIGHT)= 0.00(100.0%) 
 MO    13 (   11) HAS LZ(WEIGHT)= 0.00(100.0%) 
 MO    14 (   12) HAS LZ(WEIGHT)= 0.00(100.0%) 
 MO    15 (   13) HAS LZ(WEIGHT)= 0.00(100.0%) 
 MO    16 (   14) HAS LZ(WEIGHT)= 0.00(100.0%) 
 MO    17 (   14) HAS LZ(WEIGHT)= 0.00(100.0%) 
 MO    18 (   15) HAS LZ(WEIGHT)= 0.00(100.0%) 
 MO    19 (   15) HAS LZ(WEIGHT)= 0.00(100.0%) 
 MO    20 (   16) HAS LZ(WEIGHT)= 0.00(100.0%) 
 MO    21 (   16) HAS LZ(WEIGHT)= 0.00(100.0%) 
 MO    22 (   17) HAS LZ(WEIGHT)= 0.00(100.0%) 
 MO    23 (   18) HAS LZ(WEIGHT)= 0.00(100.0%) 

          ------------
          EIGENVECTORS
          ------------

                      1          2          3          4          5
                  -88.0903   -88.0902   -10.8119    -8.4355    -8.4347
                     A          A          A          A          A   
    1  C  1  S   -0.000289  -0.000000   0.983170   0.003249  -0.000000
    2  C  1  S    0.002498  -0.000000   0.066658  -0.027640  -0.000000
    3  C  1  X    0.000000  -0.001540   0.000000   0.000000   0.015666
    4  C  1  Y    0.000000  -0.000000   0.000000   0.000000  -0.000000
    5  C  1  Z    0.000000  -0.000000   0.000000   0.000000  -0.000000
    6  S  2  S    0.695011   0.695020  -0.000015  -0.292452  -0.292564
    7  S  2  S    0.032764   0.032726   0.000330   0.739839   0.740287
    8  S  2  S   -0.004254  -0.004176  -0.012847   0.055226   0.054081
    9  S  2  X    0.000228   0.000199   0.001222   0.009454   0.009558
   10  S  2  Y    0.000000  -0.000000   0.000000   0.000000  -0.000000
   11  S  2  Z    0.000000  -0.000000   0.000000   0.000000  -0.000000
   12  S  2  X   -0.000891  -0.000761  -0.013029   0.011274   0.009632
   13  S  2  Y    0.000000  -0.000000   0.000000   0.000000  -0.000000
   14  S  2  Z    0.000000  -0.000000   0.000000   0.000000  -0.000000
   15  S  3  S    0.695011  -0.695020  -0.000015  -0.292452   0.292564
   16  S  3  S    0.032764  -0.032726   0.000330   0.739839  -0.740287
   17  S  3  S   -0.004254   0.004176  -0.012847   0.055226  -0.054081
   18  S  3  X   -0.000228   0.000199  -0.001222  -0.009454   0.009558
   19  S  3  Y    0.000000  -0.000000   0.000000   0.000000  -0.000000
   20  S  3  Z    0.000000  -0.000000   0.000000   0.000000  -0.000000
   21  S  3  X    0.000891  -0.000761   0.013029  -0.011274   0.009632
   22  S  3  Y    0.000000  -0.000000   0.000000   0.000000  -0.000000
   23  S  3  Z    0.000000  -0.000000   0.000000   0.000000  -0.000000

                      6          7          8          9         10
                   -6.1209    -6.1201    -6.1152    -6.1152    -6.1146
                     A          A          A          A          A   
    1  C  1  S   -0.004218   0.000000   0.000000  -0.000000   0.000000
    2  C  1  S    0.047254   0.000000   0.000000  -0.000000   0.000000
    3  C  1  X   -0.000000   0.029971   0.000000  -0.000000   0.000000
    4  C  1  Y   -0.000000   0.000000  -0.012330   0.001698   0.000000
    5  C  1  Z   -0.000000   0.000000  -0.001698  -0.012330   0.000000
    6  S  2  S   -0.005458   0.005203   0.000000  -0.000000   0.000000
    7  S  2  S    0.014787  -0.013908   0.000000  -0.000000   0.000000
    8  S  2  S   -0.014343   0.013946   0.000000  -0.000000   0.000000
    9  S  2  X   -0.689666   0.690036   0.000000  -0.000000   0.000000
   10  S  2  Y   -0.000000   0.000000   0.686386  -0.094519   0.647197
   11  S  2  Z   -0.000000   0.000000   0.094519   0.686386   0.248234
   12  S  2  X   -0.069624   0.068499   0.000000  -0.000000   0.000000
   13  S  2  Y   -0.000000   0.000000   0.053387  -0.007352   0.048729
   14  S  2  Z   -0.000000   0.000000   0.007352   0.053387   0.018690
   15  S  3  S   -0.005458  -0.005203   0.000000  -0.000000   0.000000
   16  S  3  S    0.014787   0.013908   0.000000  -0.000000   0.000000
   17  S  3  S   -0.014343  -0.013946   0.000000  -0.000000   0.000000
   18  S  3  X    0.689666   0.690036   0.000000  -0.000000   0.000000
   19  S  3  Y   -0.000000   0.000000   0.686386  -0.094519  -0.647197
   20  S  3  Z   -0.000000   0.000000   0.094519   0.686386  -0.248234
   21  S  3  X    0.069624   0.068499   0.000000  -0.000000   0.000000
   22  S  3  Y   -0.000000   0.000000   0.053387  -0.007352  -0.048729
   23  S  3  Z   -0.000000   0.000000   0.007352   0.053387  -0.018690

                     11         12         13         14         15
                   -6.1146    -1.0616    -0.9245    -0.5639    -0.4747
                     A          A          A          A          A   
    1  C  1  S   -0.000000  -0.222245  -0.000000   0.160688  -0.000000
    2  C  1  S   -0.000000   0.542791  -0.000000  -0.538796  -0.000000
    3  C  1  X   -0.000000   0.000000  -0.376540   0.000000   0.486714
    4  C  1  Y   -0.000000   0.000000  -0.000000   0.000000  -0.000000
    5  C  1  Z   -0.000000   0.000000  -0.000000   0.000000  -0.000000
    6  S  2  S   -0.000000   0.045553   0.059814   0.050273   0.032161
    7  S  2  S   -0.000000  -0.159547  -0.211067  -0.177956  -0.112889
    8  S  2  S   -0.000000   0.394055   0.527738   0.619668   0.478213
    9  S  2  X   -0.000000  -0.064093  -0.057144   0.108778   0.156856
   10  S  2  Y    0.248234   0.000000  -0.000000   0.000000  -0.000000
   11  S  2  Z   -0.647197   0.000000  -0.000000   0.000000  -0.000000
   12  S  2  X   -0.000000   0.141199   0.116501  -0.297110  -0.431527
   13  S  2  Y    0.018690   0.000000  -0.000000   0.000000  -0.000000
   14  S  2  Z   -0.048729   0.000000  -0.000000   0.000000  -0.000000
   15  S  3  S   -0.000000   0.045553  -0.059814   0.050273  -0.032161
   16  S  3  S   -0.000000  -0.159547   0.211067  -0.177956   0.112889
   17  S  3  S   -0.000000   0.394055  -0.527738   0.619668  -0.478213
   18  S  3  X   -0.000000   0.064093  -0.057144  -0.108778   0.156856
   19  S  3  Y   -0.248234   0.000000  -0.000000   0.000000  -0.000000
   20  S  3  Z    0.647197   0.000000  -0.000000   0.000000  -0.000000
   21  S  3  X   -0.000000  -0.141199   0.116501   0.297110  -0.431527
   22  S  3  Y   -0.018690   0.000000  -0.000000   0.000000  -0.000000
   23  S  3  Z    0.048729   0.000000  -0.000000   0.000000  -0.000000

                     16         17         18         19         20
                   -0.4654    -0.4654    -0.2992    -0.2992     0.1805
                     A          A          A          A          A   
    1  C  1  S   -0.000000  -0.000000  -0.000000  -0.000000  -0.000000
    2  C  1  S   -0.000000  -0.000000  -0.000000  -0.000000  -0.000000
    3  C  1  X   -0.000000  -0.000000  -0.000000  -0.000000  -0.000000
    4  C  1  Y    0.119955   0.531765  -0.000000  -0.000000   0.649500
    5  C  1  Z    0.531765  -0.119955  -0.000000  -0.000000  -0.603555
    6  S  2  S   -0.000000  -0.000000  -0.000000  -0.000000  -0.000000
    7  S  2  S   -0.000000  -0.000000  -0.000000  -0.000000  -0.000000
    8  S  2  S   -0.000000  -0.000000  -0.000000  -0.000000  -0.000000
    9  S  2  X   -0.000000  -0.000000  -0.000000  -0.000000  -0.000000
   10  S  2  Y   -0.035410  -0.156973  -0.180318   0.125441   0.113313
   11  S  2  Z   -0.156973   0.035410  -0.125441  -0.180318  -0.105297
   12  S  2  X   -0.000000  -0.000000  -0.000000  -0.000000  -0.000000
   13  S  2  Y    0.111441   0.494020   0.597371  -0.415571  -0.407322
   14  S  2  Z    0.494020  -0.111441   0.415571   0.597371   0.378508
   15  S  3  S   -0.000000  -0.000000  -0.000000  -0.000000  -0.000000
   16  S  3  S   -0.000000  -0.000000  -0.000000  -0.000000  -0.000000
   17  S  3  S   -0.000000  -0.000000  -0.000000  -0.000000  -0.000000
   18  S  3  X   -0.000000  -0.000000  -0.000000  -0.000000  -0.000000
   19  S  3  Y   -0.035410  -0.156973   0.180318  -0.125441   0.113313
   20  S  3  Z   -0.156973   0.035410   0.125441   0.180318  -0.105297
   21  S  3  X   -0.000000  -0.000000  -0.000000  -0.000000  -0.000000
   22  S  3  Y    0.111441   0.494020  -0.597371   0.415571  -0.407322
   23  S  3  Z    0.494020  -0.111441  -0.415571  -0.597371   0.378508

                     21         22         23
                    0.1805     0.3994     0.7595
                     A          A          A   
    1  C  1  S   -0.000000  -0.254392   0.000000
    2  C  1  S   -0.000000   1.317763   0.000000
    3  C  1  X   -0.000000  -0.000000   1.354757
    4  C  1  Y    0.603555  -0.000000   0.000000
    5  C  1  Z    0.649500  -0.000000   0.000000
    6  S  2  S   -0.000000  -0.023982   0.020117
    7  S  2  S   -0.000000   0.085615  -0.068882
    8  S  2  S   -0.000000  -0.456317   0.590167
    9  S  2  X   -0.000000   0.214953  -0.183734
   10  S  2  Y    0.105297  -0.000000   0.000000
   11  S  2  Z    0.113313  -0.000000   0.000000
   12  S  2  X   -0.000000  -0.858952   0.849778
   13  S  2  Y   -0.378508  -0.000000   0.000000
   14  S  2  Z   -0.407322  -0.000000   0.000000
   15  S  3  S   -0.000000  -0.023982  -0.020117
   16  S  3  S   -0.000000   0.085615   0.068882
   17  S  3  S   -0.000000  -0.456317  -0.590167
   18  S  3  X   -0.000000  -0.214953  -0.183734
   19  S  3  Y    0.105297  -0.000000   0.000000
   20  S  3  Z    0.113313  -0.000000   0.000000
   21  S  3  X   -0.000000   0.858952   0.849778
   22  S  3  Y   -0.378508  -0.000000   0.000000
   23  S  3  Z   -0.407322  -0.000000   0.000000
 ...... END OF RHF CALCULATION ......
 STEP CPU TIME =     0.00 TOTAL CPU TIME =        0.0 (    0.0 MIN)
 TOTAL WALL CLOCK TIME=        0.0 SECONDS, CPU UTILIZATION IS 100.00%

     ----------------------------------------------------------------
     PROPERTY VALUES FOR THE RHF   SELF-CONSISTENT FIELD WAVEFUNCTION
     ----------------------------------------------------------------

          -----------------
          ENERGY COMPONENTS
          -----------------

         WAVEFUNCTION NORMALIZATION =       1.0000000000

                ONE ELECTRON ENERGY =   -1325.8861906542
                TWO ELECTRON ENERGY =     417.8259779751
           NUCLEAR REPULSION ENERGY =     106.9675474801
                                      ------------------
                       TOTAL ENERGY =    -801.0926651991

 ELECTRON-ELECTRON POTENTIAL ENERGY =     417.8259779751
  NUCLEUS-ELECTRON POTENTIAL ENERGY =   -2103.7452786693
   NUCLEUS-NUCLEUS POTENTIAL ENERGY =     106.9675474801
                                      ------------------
             TOTAL POTENTIAL ENERGY =   -1578.9517532141
               TOTAL KINETIC ENERGY =     777.8590880151
                 VIRIAL RATIO (V/T) =       2.0298686196

  ...... PI ENERGY ANALYSIS ......

 ENERGY ANALYSIS:
            FOCK ENERGY=   -490.2342359726
          BARE H ENERGY=  -1325.8861906542
     ELECTRONIC ENERGY =   -908.0602133134
         KINETIC ENERGY=    777.8590880151
          N-N REPULSION=    106.9675474801
           TOTAL ENERGY=   -801.0926658333
        SIGMA PART(1+2)=   -694.4290075018
               (K,V1,2)=    637.5050521838  -1588.1067629224    256.1727032368
           PI PART(1+2)=   -213.6312058116
               (K,V1,2)=    140.3540358312   -515.6385157469    161.6532741040
  SIGMA SKELETON, ERROR=   -587.4614600216      0.0000000000
             MIXED PART= 0.00000E+00 0.00000E+00 0.00000E+00 0.00000E+00
 ...... END OF PI ENERGY ANALYSIS ......

          ---------------------------------------
          MULLIKEN AND LOWDIN POPULATION ANALYSES
          ---------------------------------------

     ATOMIC MULLIKEN POPULATION IN EACH MOLECULAR ORBITAL

                      1          2          3          4          5

                  2.000000   2.000000   2.000000   2.000000   2.000000

    1             0.000037   0.000046   2.005764  -0.003809  -0.003924
    2             0.999982   0.999977  -0.002882   1.001904   1.001962
    3             0.999982   0.999977  -0.002882   1.001904   1.001962

                      6          7          8          9         10

                  2.000000   2.000000   2.000000   2.000000   2.000000

    1            -0.004794  -0.004554  -0.000520  -0.000520   0.000000
    2             1.002397   1.002277   1.000260   1.000260   1.000000
    3             1.002397   1.002277   1.000260   1.000260   1.000000

                     11         12         13         14         15

                  2.000000   2.000000   2.000000   2.000000   2.000000

    1             0.000000   0.928510   0.602092   0.379495   0.451194
    2             1.000000   0.535745   0.698954   0.810253   0.774403
    3             1.000000   0.535745   0.698954   0.810253   0.774403

                     16         17         18         19

                  2.000000   2.000000   2.000000   2.000000

    1             0.804766   0.804766   0.000000   0.000000
    2             0.597617   0.597617   1.000000   1.000000
    3             0.597617   0.597617   1.000000   1.000000

               ----- POPULATIONS IN EACH AO -----
                             MULLIKEN      LOWDIN
              1  C  1  S      1.98576     1.98064
              2  C  1  S      1.31944     1.23463
              3  C  1  X      1.04486     1.07698
              4  C  1  Y      0.80425     0.81781
              5  C  1  Z      0.80425     0.81781
              6  S  2  S      1.99985     1.99978
              7  S  2  S      1.99640     1.99667
              8  S  2  S      1.88122     1.82326
              9  S  2  X      1.96811     1.96192
             10  S  2  Y      1.98965     1.98481
             11  S  2  Z      1.98965     1.98481
             12  S  2  X      0.97940     1.07224
             13  S  2  Y      1.60823     1.60629
             14  S  2  Z      1.60823     1.60629
             15  S  3  S      1.99985     1.99978
             16  S  3  S      1.99640     1.99667
             17  S  3  S      1.88122     1.82326
             18  S  3  X      1.96811     1.96192
             19  S  3  Y      1.98965     1.98481
             20  S  3  Z      1.98965     1.98481
             21  S  3  X      0.97940     1.07224
             22  S  3  Y      1.60823     1.60629
             23  S  3  Z      1.60823     1.60629

          ----- MULLIKEN ATOMIC OVERLAP POPULATIONS -----
          (OFF-DIAGONAL ELEMENTS NEED TO BE MULTIPLIED BY 2)

             1           2           3

    1    5.0640266
    2    0.4472619  15.5873895
    3    0.4472619  -0.0139266  15.5873895

          TOTAL MULLIKEN AND LOWDIN ATOMIC POPULATIONS
       ATOM         MULL.POP.    CHARGE          LOW.POP.     CHARGE
    1 C             5.958550    0.041450         5.927886    0.072114
    2 S            16.020725   -0.020725        16.036057   -0.036057
    3 S            16.020725   -0.020725        16.036057   -0.036057

          -------------------------------
          BOND ORDER AND VALENCE ANALYSIS     BOND ORDER THRESHOLD=0.050
          -------------------------------

                   BOND                       BOND                       BOND
  ATOM PAIR DIST  ORDER      ATOM PAIR DIST  ORDER      ATOM PAIR DIST  ORDER
    1   2  1.583  1.914        1   3  1.583  1.914        2   3  3.166  0.348

                       TOTAL       BONDED        FREE
      ATOM            VALENCE     VALENCE     VALENCE
    1 C                 3.828       3.828       0.000
    2 S                 2.262       2.262       0.000
    3 S                 2.262       2.262      -0.000

          ---------------------
          ELECTROSTATIC MOMENTS
          ---------------------

 POINT   1           X           Y           Z (BOHR)    CHARGE
                 0.000000    0.000000    0.000000        0.00 (A.U.)
         DX          DY          DZ         /D/  (DEBYE)
     0.000000    0.000000    0.000000    0.000000
 ...... END OF PROPERTY EVALUATION ......
 STEP CPU TIME =     0.01 TOTAL CPU TIME =        0.0 (    0.0 MIN)
 TOTAL WALL CLOCK TIME=        0.0 SECONDS, CPU UTILIZATION IS 100.00%
               580000  WORDS OF DYNAMIC MEMORY USED
 EXECUTION OF GAMESS TERMINATED NORMALLY Sat Jan 17 14:50:56 2015
 DDI: 263624 bytes (0.3 MB / 0 MWords) used by master data server.

 ----------------------------------------
 CPU timing information for all processes
 ========================================
 0: 0.44 + 0.11 = 0.55
 ----------------------------------------
 ddikick.x: exited gracefully.
----- accounting info -----
Files used on the master node localhost.localdomain were:
-rw-r--r--. 1 schuurm schuurm     409 Jan 17 14:50 /tmp/schuurm/gamess.F05
-rw-rw-r--. 1 schuurm schuurm  180016 Jan 17 14:50 /tmp/schuurm/gamess.F08
-rw-rw-r--. 1 schuurm schuurm 1537840 Jan 17 14:50 /tmp/schuurm/gamess.F10
Sat Jan 17 14:50:59 EST 2015
0.091u 0.024s 0:03.20 3.4%	0+0k 96+8io 0pf+0w
