----- GAMESS execution script 'rungms' -----
This job is running on host euler
under operating system Linux at Fri Jan 30 16:21:29 EST 2015
Available scratch disk space (Kbyte units) at beginning of the job is
Filesystem     1K-blocks     Used Available Use% Mounted on
/dev/sda1      476528664 70767652 381531688  16% /
GAMESS temporary binary files will be written to /home/simon/gamess_tmp
GAMESS supplementary output files will be written to /home/simon/scr
Copying input file hf_fc.inp to your run's scratch directory...

 Distributed Data Interface kickoff program.
 Initiating 1 compute processes on 1 nodes to run the following command:
 /home/simon/gamess/gamess.00.x hf_fc 

          ******************************************************
          *         GAMESS VERSION =  1 MAY 2013 (R1)          *
          *             FROM IOWA STATE UNIVERSITY             *
          * M.W.SCHMIDT, K.K.BALDRIDGE, J.A.BOATZ, S.T.ELBERT, *
          *   M.S.GORDON, J.H.JENSEN, S.KOSEKI, N.MATSUNAGA,   *
          *          K.A.NGUYEN, S.J.SU, T.L.WINDUS,           *
          *       TOGETHER WITH M.DUPUIS, J.A.MONTGOMERY       *
          *         J.COMPUT.CHEM.  14, 1347-1363(1993)        *
          **************** 64 BIT LINUX VERSION ****************

  SINCE 1993, STUDENTS AND POSTDOCS WORKING AT IOWA STATE UNIVERSITY
  AND ALSO IN THEIR VARIOUS JOBS AFTER LEAVING ISU HAVE MADE IMPORTANT
  CONTRIBUTIONS TO THE CODE:
     IVANA ADAMOVIC, CHRISTINE AIKENS, YURI ALEXEEV, POOJA ARORA,
     ANDREY ASADCHEV, ROB BELL, PRADIPTA BANDYOPADHYAY, JONATHAN BENTZ,
     BRETT BODE, GALINA CHABAN, WEI CHEN, CHEOL HO CHOI, PAUL DAY,
     ALBERT DEFUSCO, TIM DUDLEY, DMITRI FEDOROV, GRAHAM FLETCHER,
     MARK FREITAG, KURT GLAESEMANN, DAN KEMP, GRANT MERRILL,
     NORIYUKI MINEZAWA, JONATHAN MULLIN, TAKESHI NAGATA,
     SEAN NEDD, HEATHER NETZLOFF, BOSILJKA NJEGIC, RYAN OLSON, MIKE PAK,
     JIM SHOEMAKER, LYUDMILA SLIPCHENKO, SAROM SOK, JIE SONG,
     TETSUYA TAKETSUGU, SIMON WEBB, SOOHAENG YOO, FEDERICO ZAHARIEV

  ADDITIONAL CODE HAS BEEN PROVIDED BY COLLABORATORS IN OTHER GROUPS:
     IOWA STATE UNIVERSITY:
          JOE IVANIC, LAIMUTIS BYTAUTAS, KLAUS RUEDENBERG
     UNIVERSITY OF TOKYO: KIMIHIKO HIRAO, TAKAHITO NAKAJIMA,
          TAKAO TSUNEDA, MUNEAKI KAMIYA, SUSUMU YANAGISAWA,
          KIYOSHI YAGI, MAHITO CHIBA, SEIKEN TOKURA, NAOAKI KAWAKAMI
     UNIVERSITY OF AARHUS: FRANK JENSEN
     UNIVERSITY OF IOWA: VISVALDAS KAIRYS, HUI LI
     NATIONAL INST. OF STANDARDS AND TECHNOLOGY: WALT STEVENS, DAVID GARMER
     UNIVERSITY OF PISA: BENEDETTA MENNUCCI, JACOPO TOMASI
     UNIVERSITY OF MEMPHIS: HENRY KURTZ, PRAKASHAN KORAMBATH
     UNIVERSITY OF ALBERTA: TOBY ZENG, MARIUSZ KLOBUKOWSKI
     UNIVERSITY OF NEW ENGLAND: MARK SPACKMAN
     MIE UNIVERSITY: HIROAKI UMEDA
     MICHIGAN STATE UNIVERSITY:
          KAROL KOWALSKI, MARTA WLOCH, JEFFREY GOUR, JESSE LUTZ,
          WEI LI, PIOTR PIECUCH
     UNIVERSITY OF SILESIA: MONIKA MUSIAL, STANISLAW KUCHARSKI
     FACULTES UNIVERSITAIRES NOTRE-DAME DE LA PAIX:
          OLIVIER QUINET, BENOIT CHAMPAGNE
     UNIVERSITY OF CALIFORNIA - SANTA BARBARA: BERNARD KIRTMAN
     INSTITUTE FOR MOLECULAR SCIENCE:
          KAZUYA ISHIMURA, MICHIO KATOUDA, AND SHIGERU NAGASE
     UNIVERSITY OF NOTRE DAME: DAN CHIPMAN
     KYUSHU UNIVERSITY:
          HARUYUKI NAKANO,
          FENG LONG GU, JACEK KORCHOWIEC, MARCIN MAKOWSKI, AND YURIKO AOKI,
          HIROTOSHI MORI AND EISAKU MIYOSHI
     PENNSYLVANIA STATE UNIVERSITY:
          TZVETELIN IORDANOV, CHET SWALINA, JONATHAN SKONE,
          SHARON HAMMES-SCHIFFER
     WASEDA UNIVERSITY:
          MASATO KOBAYASHI, TOMOKO AKAMA, TSUGUKI TOUMA,
          TAKESHI YOSHIKAWA, YASUHIRO IKABATA, HIROMI NAKAI
     NANJING UNIVERSITY: SHUHUA LI
     UNIVERSITY OF NEBRASKA:
          PEIFENG SU, DEJUN SI, NANDUN THELLAMUREGE, YALI WANG, HUI LI
     UNIVERSITY OF ZURICH:
          ROBERTO PEVERATI, KIM BALDRIDGE
     N. COPERNICUS UNIVERSITY AND JACKSON STATE UNIVERSITY:
          MARIA BARYSZ

 EXECUTION OF GAMESS BEGUN Fri Jan 30 16:21:29 2015

            ECHO OF THE FIRST FEW INPUT CARDS -
 INPUT CARD> $CONTRL SCFTYP=RHF RUNTYP=ENERGY COORD=UNIQUE NZVAR=0 $END                     
 INPUT CARD>                                                                                
 INPUT CARD> $SYSTEM TIMLIM=1 $END                                                          
 INPUT CARD>                                                                                
 INPUT CARD> $STATPT OPTTOL=1.0E-5  $END                                                    
 INPUT CARD>                                                                                
 INPUT CARD> $BASIS GBASIS=cc-pVDZ EXTFIL=.true. $END                                       
 INPUT CARD>                                                                                
 INPUT CARD> $DATA                                                                          
 INPUT CARD>  Allene, FC geometry                                                           
 INPUT CARD>  C1                                                                            
 INPUT CARD>  C,  6.0,  0.0000   0.0000   0.0000                                            
 INPUT CARD>  C,  6.0,  0.0000   0.0000   1.3132                                            
 INPUT CARD>  C,  6.0,  0.0000   0.0000  -1.3132                                            
 INPUT CARD>  H,  1.0,  0.0000   0.9295   1.8696                                            
 INPUT CARD>  H,  1.0,  0.0000  -0.9295   1.8696                                            
 INPUT CARD>  H,  1.0,  0.9295   0.0000  -1.8696                                            
 INPUT CARD>  H,  1.0, -0.9295   0.0000  -1.8696                                            
 INPUT CARD> $END                                                                           
 INPUT CARD>                                                                                
 INPUT CARD>                                                                                
    1000000 WORDS OF MEMORY AVAILABLE

     $BASIS REQUESTS READING THE "CC-PVDZ " BASIS SET FROM AN EXTERNAL FILE


     RUN TITLE
     ---------
   Allene, FC geometry                                                           

 THE POINT GROUP OF THE MOLECULE IS C1      
 THE ORDER OF THE PRINCIPAL AXIS IS     0

 THE EXTERNAL BASIS SET FILE BEING READ IS
     "/home/simon/qc_calcs/allene/gamess/test/extbas.dat"
 *** WARNING! ATOM   1 SHELL    1 TYPE S HAS NORMALIZATION   0.99939879
 *** WARNING! ATOM   1 SHELL    2 TYPE S HAS NORMALIZATION   2.00869625
 *** WARNING! ATOM   1 SHELL    4 TYPE P HAS NORMALIZATION   1.49516523
 *** WARNING! ATOM   2 SHELL    7 TYPE S HAS NORMALIZATION   0.99939879
 *** WARNING! ATOM   2 SHELL    8 TYPE S HAS NORMALIZATION   2.00869625
 *** WARNING! ATOM   2 SHELL   10 TYPE P HAS NORMALIZATION   1.49516523
 *** WARNING! ATOM   3 SHELL   13 TYPE S HAS NORMALIZATION   0.99939879
 *** WARNING! ATOM   3 SHELL   14 TYPE S HAS NORMALIZATION   2.00869625
 *** WARNING! ATOM   3 SHELL   16 TYPE P HAS NORMALIZATION   1.49516523
 *** WARNING! ATOM   4 SHELL   19 TYPE S HAS NORMALIZATION   1.70173870
 *** WARNING! ATOM   5 SHELL   22 TYPE S HAS NORMALIZATION   1.70173870
 *** WARNING! ATOM   6 SHELL   25 TYPE S HAS NORMALIZATION   1.70173870
 *** WARNING! ATOM   7 SHELL   28 TYPE S HAS NORMALIZATION   1.70173870

 ATOM      ATOMIC                      COORDINATES (BOHR)
           CHARGE         X                   Y                   Z
 C           6.0     0.0000000000        0.0000000000        0.0000000000
 C           6.0     0.0000000000        0.0000000000        2.4815881671
 C           6.0     0.0000000000        0.0000000000       -2.4815881671
 H           1.0     0.0000000000        1.7565003056        3.5330317066
 H           1.0     0.0000000000       -1.7565003056        3.5330317066
 H           1.0     1.7565003056        0.0000000000       -3.5330317066
 H           1.0    -1.7565003056        0.0000000000       -3.5330317066

          INTERNUCLEAR DISTANCES (ANGS.)
          ------------------------------

                1 C          2 C          3 C          4 H          5 H     

   1 C       0.0000000    1.3132000 *  1.3132000 *  2.0879115 *  2.0879115 *
   2 C       1.3132000 *  0.0000000    2.6264000 *  1.0833057 *  1.0833057 *
   3 C       1.3132000 *  2.6264000 *  0.0000000    3.3157482    3.3157482  
   4 H       2.0879115 *  1.0833057 *  3.3157482    0.0000000    1.8590000 *
   5 H       2.0879115 *  1.0833057 *  3.3157482    1.8590000 *  0.0000000  
   6 H       2.0879115 *  3.3157482    1.0833057 *  3.9635284    3.9635284  
   7 H       2.0879115 *  3.3157482    1.0833057 *  3.9635284    3.9635284  

                6 H          7 H     

   1 C       2.0879115 *  2.0879115 *
   2 C       3.3157482    3.3157482  
   3 C       1.0833057 *  1.0833057 *
   4 H       3.9635284    3.9635284  
   5 H       3.9635284    3.9635284  
   6 H       0.0000000    1.8590000 *
   7 H       1.8590000 *  0.0000000  

  * ... LESS THAN  3.000


     ATOMIC BASIS SET
     ----------------
 THE CONTRACTED PRIMITIVE FUNCTIONS HAVE BEEN UNNORMALIZED
 THE CONTRACTED BASIS FUNCTIONS ARE NOW NORMALIZED TO UNITY

  SHELL TYPE  PRIMITIVE        EXPONENT          CONTRACTION COEFFICIENT(S)

 C         

      1   S       1          6665.0000000    0.000691583963
      1   S       2          1000.0000000    0.005325796153
      1   S       3           228.0000000    0.027060721042
      1   S       4            64.7100000    0.101656846141
      1   S       5            21.0600000    0.274574823617
      1   S       6             7.4950000    0.448294318924
      1   S       7             2.7970000    0.284902610715
      1   S       8             0.5215000    0.015194859206

      2   S       9          6665.0000000   -0.000293269653
      2   S      10          1000.0000000   -0.002318035474
      2   S      11           228.0000000   -0.011499786039
      2   S      12            64.7100000   -0.046826727010
      2   S      13            21.0600000   -0.128466168750
      2   S      14             7.4950000   -0.301266272463
      2   S      15             2.7970000   -0.255630702330
      2   S      16             0.5215000    1.093793361012

      3   S      17             0.1596000    1.000000000000

      4   P      18             9.4390000    0.056979251590
      4   P      19             2.0020000    0.313207211501
      4   P      20             0.5456000    0.760376741738

      5   P      21             0.1517000    1.000000000000

      6   D      22             0.5500000    1.000000000000

 C         

      7   S      23          6665.0000000    0.000691583963
      7   S      24          1000.0000000    0.005325796153
      7   S      25           228.0000000    0.027060721042
      7   S      26            64.7100000    0.101656846141
      7   S      27            21.0600000    0.274574823617
      7   S      28             7.4950000    0.448294318924
      7   S      29             2.7970000    0.284902610715
      7   S      30             0.5215000    0.015194859206

      8   S      31          6665.0000000   -0.000293269653
      8   S      32          1000.0000000   -0.002318035474
      8   S      33           228.0000000   -0.011499786039
      8   S      34            64.7100000   -0.046826727010
      8   S      35            21.0600000   -0.128466168750
      8   S      36             7.4950000   -0.301266272463
      8   S      37             2.7970000   -0.255630702330
      8   S      38             0.5215000    1.093793361012

      9   S      39             0.1596000    1.000000000000

     10   P      40             9.4390000    0.056979251590
     10   P      41             2.0020000    0.313207211501
     10   P      42             0.5456000    0.760376741738

     11   P      43             0.1517000    1.000000000000

     12   D      44             0.5500000    1.000000000000

 C         

     13   S      45          6665.0000000    0.000691583963
     13   S      46          1000.0000000    0.005325796153
     13   S      47           228.0000000    0.027060721042
     13   S      48            64.7100000    0.101656846141
     13   S      49            21.0600000    0.274574823617
     13   S      50             7.4950000    0.448294318924
     13   S      51             2.7970000    0.284902610715
     13   S      52             0.5215000    0.015194859206

     14   S      53          6665.0000000   -0.000293269653
     14   S      54          1000.0000000   -0.002318035474
     14   S      55           228.0000000   -0.011499786039
     14   S      56            64.7100000   -0.046826727010
     14   S      57            21.0600000   -0.128466168750
     14   S      58             7.4950000   -0.301266272463
     14   S      59             2.7970000   -0.255630702330
     14   S      60             0.5215000    1.093793361012

     15   S      61             0.1596000    1.000000000000

     16   P      62             9.4390000    0.056979251590
     16   P      63             2.0020000    0.313207211501
     16   P      64             0.5456000    0.760376741738

     17   P      65             0.1517000    1.000000000000

     18   D      66             0.5500000    1.000000000000

 H         

     19   S      67            13.0100000    0.033498726390
     19   S      68             1.9620000    0.234800801174
     19   S      69             0.4446000    0.813682957883

     20   S      70             0.1220000    1.000000000000

     21   P      71             0.7270000    1.000000000000

 H         

     22   S      72            13.0100000    0.033498726390
     22   S      73             1.9620000    0.234800801174
     22   S      74             0.4446000    0.813682957883

     23   S      75             0.1220000    1.000000000000

     24   P      76             0.7270000    1.000000000000

 H         

     25   S      77            13.0100000    0.033498726390
     25   S      78             1.9620000    0.234800801174
     25   S      79             0.4446000    0.813682957883

     26   S      80             0.1220000    1.000000000000

     27   P      81             0.7270000    1.000000000000

 H         

     28   S      82            13.0100000    0.033498726390
     28   S      83             1.9620000    0.234800801174
     28   S      84             0.4446000    0.813682957883

     29   S      85             0.1220000    1.000000000000

     30   P      86             0.7270000    1.000000000000

 TOTAL NUMBER OF BASIS SET SHELLS             =   30
 NUMBER OF CARTESIAN GAUSSIAN BASIS FUNCTIONS =   65
 NUMBER OF ELECTRONS                          =   22
 CHARGE OF MOLECULE                           =    0
 SPIN MULTIPLICITY                            =    1
 NUMBER OF OCCUPIED ORBITALS (ALPHA)          =   11
 NUMBER OF OCCUPIED ORBITALS (BETA )          =   11
 TOTAL NUMBER OF ATOMS                        =    7
 THE NUCLEAR REPULSION ENERGY IS       59.0071065315

     $CONTRL OPTIONS
     ---------------
 SCFTYP=RHF          RUNTYP=ENERGY       EXETYP=RUN     
 MPLEVL=       0     CITYP =NONE         CCTYP =NONE         VBTYP =NONE    
 DFTTYP=NONE         TDDFT =NONE    
 MULT  =       1     ICHARG=       0     NZVAR =       0     COORD =UNIQUE  
 PP    =NONE         RELWFN=NONE         LOCAL =NONE         NUMGRD=       F
 ISPHER=      -1     NOSYM =       0     MAXIT =      30     UNITS =ANGS    
 PLTORB=       F     MOLPLT=       F     AIMPAC=       F     FRIEND=        
 NPRINT=       7     IREST =       0     GEOM  =INPUT   
 NORMF =       0     NORMP =       0     ITOL  =      20     ICUT  =       9
 INTTYP=BEST         GRDTYP=BEST         QMTTOL= 1.0E-06

     $SYSTEM OPTIONS
     ---------------
  REPLICATED MEMORY=     1000000 WORDS (ON EVERY NODE).
 DISTRIBUTED MEMDDI=           0 MILLION WORDS IN AGGREGATE,
 MEMDDI DISTRIBUTED OVER   1 PROCESSORS IS           0 WORDS/PROCESSOR.
 TOTAL MEMORY REQUESTED ON EACH PROCESSOR=     1000000 WORDS.
 TIMLIM=           1.00 MINUTES, OR       0.0 DAYS.
 PARALL= F  BALTYP=  DLB     KDIAG=    0  COREFL= F
 MXSEQ2=     300 MXSEQ3=     150

          ----------------
          PROPERTIES INPUT
          ----------------

     MOMENTS            FIELD           POTENTIAL          DENSITY
 IEMOM =       1   IEFLD =       0   IEPOT =       0   IEDEN =       0
 WHERE =COMASS     WHERE =NUCLEI     WHERE =NUCLEI     WHERE =NUCLEI  
 OUTPUT=BOTH       OUTPUT=BOTH       OUTPUT=BOTH       OUTPUT=BOTH    
 IEMINT=       0   IEFINT=       0                     IEDINT=       0
                                                       MORB  =       0
          EXTRAPOLATION IN EFFECT
          SOSCF IN EFFECT
 ORBITAL PRINTING OPTION: NPREO=     1    65     2     1

     -------------------------------
     INTEGRAL TRANSFORMATION OPTIONS
     -------------------------------
     NWORD  =            0
     CUTOFF = 1.0E-09     MPTRAN =       0
     DIRTRF =       F     AOINTS =DUP     

          ----------------------
          INTEGRAL INPUT OPTIONS
          ----------------------
 NOPK  =       1 NORDER=       0 SCHWRZ=       T

     ------------------------------------------
     THE POINT GROUP IS C1 , NAXIS= 0, ORDER= 1
     ------------------------------------------

     DIMENSIONS OF THE SYMMETRY SUBSPACES ARE
 A   =   65

 ..... DONE SETTING UP THE RUN .....
 STEP CPU TIME =     0.02 TOTAL CPU TIME =        0.0 (    0.0 MIN)
 TOTAL WALL CLOCK TIME=        0.0 SECONDS, CPU UTILIZATION IS  50.00%

          ********************
          1 ELECTRON INTEGRALS
          ********************
 ...... END OF ONE-ELECTRON INTEGRALS ......
 STEP CPU TIME =     0.01 TOTAL CPU TIME =        0.0 (    0.0 MIN)
 TOTAL WALL CLOCK TIME=        0.0 SECONDS, CPU UTILIZATION IS  75.00%

          -------------
          GUESS OPTIONS
          -------------
          GUESS =HUCKEL            NORB  =       0          NORDER=       0
          MIX   =       F          PRTMO =       F          PUNMO =       F
          TOLZ  = 1.0E-08          TOLE  = 1.0E-05
          SYMDEN=       F          PURIFY=       F

 INITIAL GUESS ORBITALS GENERATED BY HUCKEL   ROUTINE.
 HUCKEL GUESS REQUIRES     37343 WORDS.

 SYMMETRIES FOR INITIAL GUESS ORBITALS FOLLOW.   BOTH SET(S).
    11 ORBITALS ARE OCCUPIED (    3 CORE ORBITALS).
     4=A        5=A        6=A        7=A        8=A        9=A       10=A   
    11=A       12=A       13=A       14=A       15=A       16=A       17=A   
    18=A       19=A       20=A       21=A   
 ...... END OF INITIAL ORBITAL SELECTION ......
 STEP CPU TIME =     0.01 TOTAL CPU TIME =        0.0 (    0.0 MIN)
 TOTAL WALL CLOCK TIME=        0.0 SECONDS, CPU UTILIZATION IS  80.00%

                    ----------------------
                    AO INTEGRAL TECHNOLOGY
                    ----------------------
     S,P,L SHELL ROTATED AXIS INTEGRALS, REPROGRAMMED BY
        KAZUYA ISHIMURA (IMS) AND JOSE SIERRA (SYNSTAR).
     S,P,D,L SHELL ROTATED AXIS INTEGRALS PROGRAMMED BY
        KAZUYA ISHIMURA (INSTITUTE FOR MOLECULAR SCIENCE).
     S,P,D,F,G SHELL TO TOTAL QUARTET ANGULAR MOMENTUM SUM 5,
        ERIC PROGRAM BY GRAHAM FLETCHER (ELORET AND NASA ADVANCED
        SUPERCOMPUTING DIVISION, AMES RESEARCH CENTER).
     S,P,D,F,G,L SHELL GENERAL RYS QUADRATURE PROGRAMMED BY
        MICHEL DUPUIS (PACIFIC NORTHWEST NATIONAL LABORATORY).

          --------------------
          2 ELECTRON INTEGRALS
          --------------------

 THE -PK- OPTION IS OFF, THE INTEGRALS ARE NOT IN SUPERMATRIX FORM.
 STORING   15000 INTEGRALS/RECORD ON DISK, USING 12 BYTES/INTEGRAL.
 TWO ELECTRON INTEGRAL EVALUATION REQUIRES   90861 WORDS OF MEMORY.
 SCHWARZ INEQUALITY OVERHEAD:      2145 INTEGRALS, T=        0.00
 II,JST,KST,LST =  1  1  1  1 NREC =         1 INTLOC =    1
 II,JST,KST,LST =  2  1  1  1 NREC =         1 INTLOC =    2
 II,JST,KST,LST =  3  1  1  1 NREC =         1 INTLOC =    7
 II,JST,KST,LST =  4  1  1  1 NREC =         1 INTLOC =   22
 II,JST,KST,LST =  5  1  1  1 NREC =         1 INTLOC =   67
 II,JST,KST,LST =  6  1  1  1 NREC =         1 INTLOC =  214
 II,JST,KST,LST =  7  1  1  1 NREC =         1 INTLOC = 1189
 II,JST,KST,LST =  8  1  1  1 NREC =         1 INTLOC = 1867
 II,JST,KST,LST =  9  1  1  1 NREC =         1 INTLOC = 2713
 II,JST,KST,LST = 10  1  1  1 NREC =         1 INTLOC = 3757
 II,JST,KST,LST = 11  1  1  1 NREC =         1 INTLOC = 7134
 II,JST,KST,LST = 12  1  1  1 NREC =         1 INTLOC =12131
 II,JST,KST,LST = 13  1  1  1 NREC =         2 INTLOC =13698
 II,JST,KST,LST = 14  1  1  1 NREC =         3 INTLOC = 3364
 II,JST,KST,LST = 15  1  1  1 NREC =         3 INTLOC = 8628
 II,JST,KST,LST = 16  1  1  1 NREC =         3 INTLOC =14535
 II,JST,KST,LST = 17  1  1  1 NREC =         5 INTLOC = 2106
 II,JST,KST,LST = 18  1  1  1 NREC =         6 INTLOC = 9433
 II,JST,KST,LST = 19  1  1  1 NREC =        10 INTLOC =11413
 II,JST,KST,LST = 20  1  1  1 NREC =        12 INTLOC = 8423
 II,JST,KST,LST = 21  1  1  1 NREC =        14 INTLOC = 7576
 II,JST,KST,LST = 22  1  1  1 NREC =        20 INTLOC = 8064
 II,JST,KST,LST = 23  1  1  1 NREC =        22 INTLOC =14702
 II,JST,KST,LST = 24  1  1  1 NREC =        25 INTLOC = 9128
 II,JST,KST,LST = 25  1  1  1 NREC =        33 INTLOC = 8696
 II,JST,KST,LST = 26  1  1  1 NREC =        37 INTLOC =10179
 II,JST,KST,LST = 27  1  1  1 NREC =        42 INTLOC = 4256
 II,JST,KST,LST = 28  1  1  1 NREC =        54 INTLOC = 6159
 II,JST,KST,LST = 29  1  1  1 NREC =        59 INTLOC = 7514
 II,JST,KST,LST = 30  1  1  1 NREC =        65 INTLOC = 3480
 SCHWARZ INEQUALITY TEST SKIPPED        1563 INTEGRAL BLOCKS.
 TOTAL NUMBER OF NONZERO TWO-ELECTRON INTEGRALS =             1187653
         80 INTEGRAL RECORDS WERE STORED ON DISK FILE  8.
  ...... END OF TWO-ELECTRON INTEGRALS .....
 STEP CPU TIME =     0.67 TOTAL CPU TIME =        0.7 (    0.0 MIN)
 TOTAL WALL CLOCK TIME=        0.7 SECONDS, CPU UTILIZATION IS  98.61%

          --------------------------
                 RHF SCF CALCULATION
          --------------------------

     NUCLEAR ENERGY =        59.0071065315
     MAXIT =   30     NPUNCH=    2
     EXTRAP=T  DAMP=F  SHIFT=F  RSTRCT=F  DIIS=F  DEM=F  SOSCF=T
     DENSITY MATRIX CONV=  1.00E-05
     SOSCF WILL OPTIMIZE     594 ORBITAL ROTATIONS, SOGTOL=   0.250
     MEMORY REQUIRED FOR RHF ITERS=     62861 WORDS.

 ITER EX DEM     TOTAL ENERGY        E CHANGE  DENSITY CHANGE     ORB. GRAD
   1  0  0     -115.6001979651  -115.6001979651   0.814107573   0.000000000
          ---------------START SECOND ORDER SCF---------------
   2  1  0     -115.8563600477    -0.2561620826   0.058369455   0.037643316
   3  2  0     -115.8701957797    -0.0138357320   0.029258239   0.010958069
   4  3  0     -115.8723968113    -0.0022010316   0.008582372   0.002079218
   5  4  0     -115.8724984517    -0.0001016404   0.003685707   0.000547716
   6  5  0     -115.8725064172    -0.0000079655   0.000392287   0.000133620
   7  6  0     -115.8725069071    -0.0000004898   0.000182151   0.000047252
   8  7  0     -115.8725069838    -0.0000000767   0.000093904   0.000016906
   9  8  0     -115.8725069889    -0.0000000052   0.000022167   0.000003860
  10  9  0     -115.8725069894    -0.0000000004   0.000003674   0.000000595
  11 10  0     -115.8725069894    -0.0000000000   0.000001537   0.000000199

          -----------------
          DENSITY CONVERGED
          -----------------
     TIME TO FORM FOCK OPERATORS=       0.3 SECONDS (       0.0 SEC/ITER)
     TIME TO SOLVE SCF EQUATIONS=       0.0 SECONDS (       0.0 SEC/ITER)

 FINAL RHF ENERGY IS     -115.8725069894 AFTER  11 ITERATIONS

          ------------
          EIGENVECTORS
          ------------

                      1          2          3          4          5
                  -11.2703   -11.2445   -11.2444    -1.0705    -0.9556
                     A          A          A          A          A   
    1  C  1  S    0.999986   0.000000  -0.050865  -0.018599   0.000000
    2  C  1  S    0.003888   0.000000   0.000086   0.326579   0.000000
    3  C  1  S   -0.000439   0.000000   0.001684   0.232004   0.000000
    4  C  1  X    0.000000   0.000000   0.000000   0.000000   0.000000
    5  C  1  Y    0.000000   0.000000   0.000000   0.000000   0.000000
    6  C  1  Z    0.000000   0.000345   0.000000   0.000000   0.291374
    7  C  1  X    0.000000   0.000000   0.000000   0.000000   0.000000
    8  C  1  Y    0.000000   0.000000   0.000000   0.000000   0.000000
    9  C  1  Z    0.000000   0.000923   0.000000   0.000000   0.132014
   10  C  1 XX   -0.002749   0.000125  -0.000038  -0.011230   0.002793
   11  C  1 YY   -0.002749  -0.000125  -0.000038  -0.011230  -0.002793
   12  C  1 ZZ   -0.000211   0.000000   0.000268   0.047383   0.000000
   13  C  1 XY    0.000000   0.000000   0.000000   0.000000  -0.000000
   14  C  1 XZ    0.000000   0.000000   0.000000   0.000000   0.000000
   15  C  1 YZ    0.000000   0.000000   0.000000   0.000000   0.000000
   16  C  2  S    0.035119   0.708033   0.707098  -0.021297  -0.018854
   17  C  2  S   -0.000397   0.002997   0.002893   0.216052   0.275857
   18  C  2  S    0.000553  -0.001355  -0.001187   0.119581   0.128465
   19  C  2  X    0.000000   0.000000   0.000000   0.000000   0.000000
   20  C  2  Y    0.000000   0.000000   0.000000   0.000000   0.000000
   21  C  2  Z    0.000214  -0.000312  -0.000192  -0.093336  -0.052340
   22  C  2  X    0.000000   0.000000   0.000000   0.000000   0.000000
   23  C  2  Y    0.000000   0.000000   0.000000   0.000000   0.000000
   24  C  2  Z   -0.000174   0.000203   0.000225  -0.004351   0.019812
   25  C  2 XX   -0.000098  -0.001845  -0.001813  -0.002485  -0.005360
   26  C  2 YY   -0.000533  -0.001766  -0.001788  -0.009157  -0.006899
   27  C  2 ZZ   -0.000470  -0.001418  -0.001511   0.012106   0.007203
   28  C  2 XY    0.000000   0.000000   0.000000  -0.000000  -0.000000
   29  C  2 XZ    0.000000   0.000000   0.000000   0.000000   0.000000
   30  C  2 YZ    0.000000   0.000000   0.000000   0.000000   0.000000
   31  C  3  S    0.035119  -0.708033   0.707098  -0.021297   0.018854
   32  C  3  S   -0.000397  -0.002997   0.002893   0.216052  -0.275857
   33  C  3  S    0.000553   0.001355  -0.001187   0.119581  -0.128465
   34  C  3  X    0.000000   0.000000   0.000000   0.000000   0.000000
   35  C  3  Y    0.000000   0.000000   0.000000   0.000000   0.000000
   36  C  3  Z   -0.000214  -0.000312   0.000192   0.093336  -0.052340
   37  C  3  X    0.000000   0.000000   0.000000   0.000000   0.000000
   38  C  3  Y    0.000000   0.000000   0.000000   0.000000   0.000000
   39  C  3  Z    0.000174   0.000203  -0.000225   0.004351   0.019812
   40  C  3 XX   -0.000533   0.001766  -0.001788  -0.009157   0.006899
   41  C  3 YY   -0.000098   0.001845  -0.001813  -0.002485   0.005360
   42  C  3 ZZ   -0.000470   0.001418  -0.001511   0.012106  -0.007203
   43  C  3 XY    0.000000   0.000000   0.000000   0.000000  -0.000000
   44  C  3 XZ    0.000000   0.000000   0.000000   0.000000   0.000000
   45  C  3 YZ    0.000000   0.000000   0.000000   0.000000   0.000000
   46  H  4  S    0.000238   0.000381   0.000413   0.080089   0.127853
   47  H  4  S    0.000012   0.000199   0.000185   0.001810   0.009009
   48  H  4  X    0.000000   0.000000   0.000000   0.000000   0.000000
   49  H  4  Y   -0.000160  -0.000089  -0.000107  -0.011163  -0.016315
   50  H  4  Z   -0.000134  -0.000092  -0.000097  -0.009054  -0.011095
   51  H  5  S    0.000238   0.000381   0.000413   0.080089   0.127853
   52  H  5  S    0.000012   0.000199   0.000185   0.001810   0.009009
   53  H  5  X    0.000000   0.000000   0.000000  -0.000000   0.000000
   54  H  5  Y    0.000160   0.000089   0.000107   0.011163   0.016315
   55  H  5  Z   -0.000134  -0.000092  -0.000097  -0.009054  -0.011095
   56  H  6  S    0.000238  -0.000381   0.000413   0.080089  -0.127853
   57  H  6  S    0.000012  -0.000199   0.000185   0.001810  -0.009009
   58  H  6  X   -0.000160   0.000089  -0.000107  -0.011163   0.016315
   59  H  6  Y    0.000000   0.000000   0.000000  -0.000000   0.000000
   60  H  6  Z    0.000134  -0.000092   0.000097   0.009054  -0.011095
   61  H  7  S    0.000238  -0.000381   0.000413   0.080089  -0.127853
   62  H  7  S    0.000012  -0.000199   0.000185   0.001810  -0.009009
   63  H  7  X    0.000160  -0.000089   0.000107   0.011163  -0.016315
   64  H  7  Y    0.000000   0.000000   0.000000   0.000000   0.000000
   65  H  7  Z    0.000134  -0.000092   0.000097   0.009054  -0.011095

                      6          7          8          9         10
                   -0.7124    -0.6224    -0.6048    -0.6048    -0.3742
                     A          A          A          A          A   
    1  C  1  S    0.007457   0.000000   0.000000  -0.000000  -0.000000
    2  C  1  S   -0.245264   0.000000   0.000000  -0.000000  -0.000000
    3  C  1  S   -0.161740   0.000000   0.000000  -0.000000  -0.000000
    4  C  1  X   -0.000000   0.000000   0.024198   0.156729   0.345414
    5  C  1  Y   -0.000000   0.000000   0.156729  -0.024198   0.064181
    6  C  1  Z   -0.000000   0.382320   0.000000  -0.000000  -0.000000
    7  C  1  X   -0.000000   0.000000   0.011128   0.072080   0.253724
    8  C  1  Y   -0.000000   0.000000   0.072080  -0.011128   0.047144
    9  C  1  Z   -0.000000  -0.067190   0.000000  -0.000000  -0.000000
   10  C  1 XX    0.002229   0.003013   0.000000  -0.000000  -0.000000
   11  C  1 YY    0.002229  -0.003013   0.000000  -0.000000  -0.000000
   12  C  1 ZZ    0.001198   0.000000   0.000000  -0.000000  -0.000000
   13  C  1 XY   -0.000000  -0.000000   0.000000  -0.000000  -0.000000
   14  C  1 XZ   -0.000000   0.000000  -0.002358  -0.015275   0.044962
   15  C  1 YZ   -0.000000   0.000000   0.015275  -0.002358  -0.008354
   16  C  2  S   -0.008881  -0.000316   0.000000  -0.000000  -0.000000
   17  C  2  S    0.124378  -0.017775   0.000000  -0.000000  -0.000000
   18  C  2  S    0.120417   0.094949   0.000000  -0.000000  -0.000000
   19  C  2  X   -0.000000   0.000000   0.011201   0.072551   0.395570
   20  C  2  Y   -0.000000   0.000000   0.411973  -0.063605  -0.019882
   21  C  2  Z    0.262238  -0.334155   0.000000  -0.000000  -0.000000
   22  C  2  X   -0.000000   0.000000   0.005475   0.035463   0.302720
   23  C  2  Y   -0.000000   0.000000   0.149504  -0.023082  -0.016007
   24  C  2  Z    0.094478  -0.176554   0.000000  -0.000000  -0.000000
   25  C  2 XX   -0.001395  -0.002408   0.000000  -0.000000  -0.000000
   26  C  2 YY    0.015568  -0.018422   0.000000  -0.000000  -0.000000
   27  C  2 ZZ   -0.020786   0.015542   0.000000  -0.000000  -0.000000
   28  C  2 XY    0.000000  -0.000000   0.000000  -0.000000  -0.000000
   29  C  2 XZ   -0.000000   0.000000  -0.001928  -0.012489  -0.030482
   30  C  2 YZ   -0.000000   0.000000   0.010306  -0.001591  -0.006996
   31  C  3  S   -0.008881   0.000316   0.000000  -0.000000  -0.000000
   32  C  3  S    0.124378   0.017775   0.000000  -0.000000  -0.000000
   33  C  3  S    0.120417  -0.094949   0.000000  -0.000000  -0.000000
   34  C  3  X   -0.000000   0.000000   0.063605   0.411973  -0.107004
   35  C  3  Y   -0.000000   0.000000   0.072551  -0.011201   0.073501
   36  C  3  Z   -0.262238  -0.334155   0.000000  -0.000000  -0.000000
   37  C  3  X   -0.000000   0.000000   0.023082   0.149504  -0.086147
   38  C  3  Y   -0.000000   0.000000   0.035463  -0.005475   0.056248
   39  C  3  Z   -0.094478  -0.176554   0.000000  -0.000000  -0.000000
   40  C  3 XX    0.015568   0.018422   0.000000  -0.000000  -0.000000
   41  C  3 YY   -0.001395   0.002408   0.000000  -0.000000  -0.000000
   42  C  3 ZZ   -0.020786  -0.015542   0.000000  -0.000000  -0.000000
   43  C  3 XY   -0.000000  -0.000000   0.000000  -0.000000  -0.000000
   44  C  3 XZ   -0.000000   0.000000  -0.001591  -0.010306   0.037652
   45  C  3 YZ   -0.000000   0.000000   0.012489  -0.001928   0.005664
   46  H  4  S    0.181500  -0.156583   0.297027  -0.045858  -0.022567
   47  H  4  S    0.043409  -0.045670   0.101770  -0.015712  -0.013599
   48  H  4  X   -0.000000   0.000000   0.000431   0.002794   0.013961
   49  H  4  Y   -0.018216   0.012677  -0.014360   0.002217   0.000042
   50  H  4  Z   -0.003694  -0.000652  -0.015023   0.002319   0.000723
   51  H  5  S    0.181500  -0.156583  -0.297027   0.045858   0.022567
   52  H  5  S    0.043409  -0.045670  -0.101770   0.015712   0.013599
   53  H  5  X    0.000000  -0.000000   0.000431   0.002794   0.013961
   54  H  5  Y    0.018216  -0.012677  -0.014360   0.002217   0.000042
   55  H  5  Z   -0.003694  -0.000652   0.015023  -0.002319  -0.000723
   56  H  6  S    0.181500   0.156583   0.045858   0.297027  -0.121453
   57  H  6  S    0.043409   0.045670   0.015712   0.101770  -0.073186
   58  H  6  X   -0.018216  -0.012677  -0.002217  -0.014360   0.000227
   59  H  6  Y    0.000000   0.000000   0.002794  -0.000431   0.002594
   60  H  6  Z    0.003694  -0.000652   0.002319   0.015023  -0.003889
   61  H  7  S    0.181500   0.156583  -0.045858  -0.297027   0.121453
   62  H  7  S    0.043409   0.045670  -0.015712  -0.101770   0.073186
   63  H  7  X    0.018216   0.012677  -0.002217  -0.014360   0.000227
   64  H  7  Y   -0.000000  -0.000000   0.002794  -0.000431   0.002594
   65  H  7  Z    0.003694  -0.000652  -0.002319  -0.015023   0.003889

                     11         12         13         14         15
                   -0.3742     0.1671     0.1671     0.2006     0.2240
                     A          A          A          A          A   
    1  C  1  S    0.000000  -0.000000  -0.000000   0.016071   0.000000
    2  C  1  S    0.000000  -0.000000  -0.000000   0.007833   0.000000
    3  C  1  S    0.000000  -0.000000  -0.000000   0.278261   0.000000
    4  C  1  X   -0.064181   0.377425  -0.008547   0.000000   0.000000
    5  C  1  Y    0.345414   0.008547   0.377425   0.000000   0.000000
    6  C  1  Z    0.000000  -0.000000  -0.000000   0.000000  -0.053120
    7  C  1  X   -0.047144   0.591499  -0.013395   0.000000   0.000000
    8  C  1  Y    0.253724   0.013395   0.591499   0.000000   0.000000
    9  C  1  Z    0.000000  -0.000000  -0.000000   0.000000   0.589608
   10  C  1 XX    0.000000  -0.000000  -0.000000  -0.007045   0.009292
   11  C  1 YY    0.000000  -0.000000  -0.000000  -0.007045  -0.009292
   12  C  1 ZZ    0.000000  -0.000000  -0.000000   0.048129   0.000000
   13  C  1 XY    0.000000  -0.000000  -0.000000   0.000000  -0.000000
   14  C  1 XZ   -0.008354  -0.023596   0.000534   0.000000   0.000000
   15  C  1 YZ   -0.044962   0.000534   0.023596   0.000000   0.000000
   16  C  2  S    0.000000  -0.000000  -0.000000  -0.043319  -0.055301
   17  C  2  S    0.000000  -0.000000  -0.000000   0.102224   0.052287
   18  C  2  S    0.000000  -0.000000  -0.000000   1.287296   0.988782
   19  C  2  X   -0.073501  -0.307819   0.006971   0.000000   0.000000
   20  C  2  Y   -0.107004   0.001929   0.085181   0.000000   0.000000
   21  C  2  Z    0.000000  -0.000000  -0.000000   0.062657   0.143949
   22  C  2  X   -0.056248  -0.649356   0.014705   0.000000   0.000000
   23  C  2  Y   -0.086147   0.007954   0.351243   0.000000   0.000000
   24  C  2  Z    0.000000  -0.000000  -0.000000   0.547928   0.755866
   25  C  2 XX    0.000000  -0.000000  -0.000000  -0.024503  -0.028726
   26  C  2 YY    0.000000  -0.000000  -0.000000   0.004694  -0.014796
   27  C  2 ZZ    0.000000  -0.000000  -0.000000  -0.024022  -0.030164
   28  C  2 XY    0.000000  -0.000000  -0.000000  -0.000000   0.000000
   29  C  2 XZ    0.005664  -0.030764   0.000697   0.000000   0.000000
   30  C  2 YZ   -0.037652  -0.001065  -0.047019   0.000000   0.000000
   31  C  3  S    0.000000  -0.000000  -0.000000  -0.043319   0.055301
   32  C  3  S    0.000000  -0.000000  -0.000000   0.102224  -0.052287
   33  C  3  S    0.000000  -0.000000  -0.000000   1.287296  -0.988782
   34  C  3  X    0.019882   0.085181  -0.001929   0.000000   0.000000
   35  C  3  Y    0.395570  -0.006971  -0.307819   0.000000   0.000000
   36  C  3  Z    0.000000  -0.000000  -0.000000  -0.062657   0.143949
   37  C  3  X    0.016007   0.351243  -0.007954   0.000000   0.000000
   38  C  3  Y    0.302720  -0.014705  -0.649356   0.000000   0.000000
   39  C  3  Z    0.000000  -0.000000  -0.000000  -0.547928   0.755866
   40  C  3 XX    0.000000  -0.000000  -0.000000   0.004694   0.014796
   41  C  3 YY    0.000000  -0.000000  -0.000000  -0.024503   0.028726
   42  C  3 ZZ    0.000000  -0.000000  -0.000000  -0.024022   0.030164
   43  C  3 XY    0.000000  -0.000000  -0.000000   0.000000   0.000000
   44  C  3 XZ   -0.006996   0.047019  -0.001065   0.000000   0.000000
   45  C  3 YZ    0.030482   0.000697   0.030764   0.000000   0.000000
   46  H  4  S   -0.121453  -0.002926  -0.129206  -0.008984  -0.007636
   47  H  4  S   -0.073186  -0.014791  -0.653167  -0.997378  -1.071935
   48  H  4  X   -0.002594  -0.017686   0.000401   0.000000   0.000000
   49  H  4  Y    0.000227   0.000086   0.003815   0.011228   0.006005
   50  H  4  Z    0.003889  -0.000104  -0.004592   0.002321   0.002451
   51  H  5  S    0.121453   0.002926   0.129206  -0.008984  -0.007636
   52  H  5  S    0.073186   0.014791   0.653167  -0.997378  -1.071935
   53  H  5  X   -0.002594  -0.017686   0.000401  -0.000000  -0.000000
   54  H  5  Y    0.000227   0.000086   0.003815  -0.011228  -0.006005
   55  H  5  Z   -0.003889   0.000104   0.004592   0.002321   0.002451
   56  H  6  S    0.022567  -0.129206   0.002926  -0.008984   0.007636
   57  H  6  S    0.013599  -0.653167   0.014791  -0.997378   1.071935
   58  H  6  X   -0.000042   0.003815  -0.000086   0.011228  -0.006005
   59  H  6  Y    0.013961  -0.000401  -0.017686  -0.000000   0.000000
   60  H  6  Z    0.000723   0.004592  -0.000104  -0.002321   0.002451
   61  H  7  S   -0.022567   0.129206  -0.002926  -0.008984   0.007636
   62  H  7  S   -0.013599   0.653167  -0.014791  -0.997378   1.071935
   63  H  7  X   -0.000042   0.003815  -0.000086  -0.011228   0.006005
   64  H  7  Y    0.013961  -0.000401  -0.017686   0.000000  -0.000000
   65  H  7  Z   -0.000723  -0.004592   0.000104  -0.002321   0.002451

                     16         17         18         19         20
                    0.2802     0.2802     0.4304     0.4392     0.5629
                     A          A          A          A          A   
    1  C  1  S    0.000000   0.000000   0.035696  -0.000000  -0.331233
    2  C  1  S    0.000000   0.000000   0.286952  -0.000000  -0.453790
    3  C  1  S    0.000000   0.000000   4.997909  -0.000000   1.714079
    4  C  1  X    0.004598   0.127734  -0.000000  -0.000000  -0.000000
    5  C  1  Y   -0.127734   0.004598  -0.000000  -0.000000  -0.000000
    6  C  1  Z    0.000000   0.000000  -0.000000   0.241017  -0.000000
    7  C  1  X    0.028020   0.778370  -0.000000  -0.000000  -0.000000
    8  C  1  Y   -0.778370   0.028020  -0.000000  -0.000000  -0.000000
    9  C  1  Z    0.000000   0.000000  -0.000000   7.860839  -0.000000
   10  C  1 XX    0.000000   0.000000   0.001341   0.016063  -0.057405
   11  C  1 YY    0.000000   0.000000   0.001341  -0.016063  -0.057405
   12  C  1 ZZ    0.000000   0.000000   0.216833  -0.000000  -0.360747
   13  C  1 XY    0.000000   0.000000  -0.000000  -0.000000  -0.000000
   14  C  1 XZ   -0.000003  -0.000070  -0.000000  -0.000000  -0.000000
   15  C  1 YZ   -0.000070   0.000003  -0.000000  -0.000000  -0.000000
   16  C  2  S    0.000000   0.000000   0.062014   0.134369  -0.144878
   17  C  2  S    0.000000   0.000000   0.009731   0.172776  -0.357875
   18  C  2  S    0.000000   0.000000  -1.858133  -6.378204   0.338604
   19  C  2  X   -0.004065  -0.112918  -0.000000  -0.000000  -0.000000
   20  C  2  Y    0.288696  -0.010392  -0.000000  -0.000000  -0.000000
   21  C  2  Z    0.000000   0.000000   0.036892  -0.076079   0.438606
   22  C  2  X   -0.016100  -0.447254  -0.000000  -0.000000  -0.000000
   23  C  2  Y    1.652649  -0.059492  -0.000000  -0.000000  -0.000000
   24  C  2  Z    0.000000   0.000000   2.205217   4.016686   0.073108
   25  C  2 XX    0.000000   0.000000   0.054080   0.074188  -0.063998
   26  C  2 YY    0.000000   0.000000   0.016056  -0.022946  -0.131401
   27  C  2 ZZ    0.000000   0.000000  -0.060427  -0.013606   0.013487
   28  C  2 XY    0.000000   0.000000  -0.000000  -0.000000   0.000000
   29  C  2 XZ   -0.000341  -0.009460  -0.000000  -0.000000  -0.000000
   30  C  2 YZ    0.048675  -0.001752  -0.000000  -0.000000  -0.000000
   31  C  3  S    0.000000   0.000000   0.062014  -0.134369  -0.144878
   32  C  3  S    0.000000   0.000000   0.009731  -0.172776  -0.357875
   33  C  3  S    0.000000   0.000000  -1.858133   6.378204   0.338604
   34  C  3  X   -0.010392  -0.288696  -0.000000  -0.000000  -0.000000
   35  C  3  Y    0.112918  -0.004065  -0.000000  -0.000000  -0.000000
   36  C  3  Z    0.000000   0.000000  -0.036892  -0.076079  -0.438606
   37  C  3  X   -0.059492  -1.652649  -0.000000  -0.000000  -0.000000
   38  C  3  Y    0.447254  -0.016100  -0.000000  -0.000000  -0.000000
   39  C  3  Z    0.000000   0.000000  -2.205217   4.016686  -0.073108
   40  C  3 XX    0.000000   0.000000   0.016056   0.022946  -0.131401
   41  C  3 YY    0.000000   0.000000   0.054080  -0.074188  -0.063998
   42  C  3 ZZ    0.000000   0.000000  -0.060427   0.013606   0.013487
   43  C  3 XY    0.000000   0.000000   0.000000  -0.000000  -0.000000
   44  C  3 XZ    0.001752   0.048675  -0.000000  -0.000000  -0.000000
   45  C  3 YZ   -0.009460   0.000341  -0.000000  -0.000000  -0.000000
   46  H  4  S    0.077234  -0.002780  -0.091360  -0.104902  -0.032517
   47  H  4  S   -1.885072   0.067858  -0.282570  -0.468164  -0.283279
   48  H  4  X   -0.000235  -0.006538  -0.000000  -0.000000   0.000000
   49  H  4  Y    0.018501  -0.000666  -0.008787  -0.014800  -0.033730
   50  H  4  Z    0.023545  -0.000848   0.005884  -0.012920   0.003053
   51  H  5  S   -0.077234   0.002780  -0.091360  -0.104902  -0.032517
   52  H  5  S    1.885072  -0.067858  -0.282570  -0.468164  -0.283279
   53  H  5  X   -0.000235  -0.006538   0.000000   0.000000  -0.000000
   54  H  5  Y    0.018501  -0.000666   0.008787   0.014800   0.033730
   55  H  5  Z   -0.023545   0.000848   0.005884  -0.012920   0.003053
   56  H  6  S   -0.002780  -0.077234  -0.091360   0.104902  -0.032517
   57  H  6  S    0.067858   1.885072  -0.282570   0.468164  -0.283279
   58  H  6  X   -0.000666  -0.018501  -0.008787   0.014800  -0.033730
   59  H  6  Y    0.006538  -0.000235   0.000000  -0.000000  -0.000000
   60  H  6  Z    0.000848   0.023545  -0.005884  -0.012920  -0.003053
   61  H  7  S    0.002780   0.077234  -0.091360   0.104902  -0.032517
   62  H  7  S   -0.067858  -1.885072  -0.282570   0.468164  -0.283279
   63  H  7  X   -0.000666  -0.018501   0.008787  -0.014800   0.033730
   64  H  7  Y    0.006538  -0.000235  -0.000000   0.000000   0.000000
   65  H  7  Z   -0.000848  -0.023545  -0.005884  -0.012920  -0.003053

                     21         22         23         24         25
                    0.6768     0.6768     0.7042     0.7278     0.8218
                     A          A          A          A          A   
    1  C  1  S    0.000000  -0.000000  -0.129181   0.000000   0.000000
    2  C  1  S    0.000000  -0.000000  -0.433491   0.000000   0.000000
    3  C  1  S    0.000000  -0.000000   0.224278   0.000000   0.000000
    4  C  1  X    0.143880  -0.510321   0.000000   0.000000   0.716872
    5  C  1  Y   -0.510321  -0.143880   0.000000   0.000000   0.191952
    6  C  1  Z    0.000000  -0.000000   0.000000  -0.404078   0.000000
    7  C  1  X   -0.074073   0.262727   0.000000   0.000000  -0.889500
    8  C  1  Y    0.262727   0.074073   0.000000   0.000000  -0.238176
    9  C  1  Z    0.000000  -0.000000   0.000000   0.941401   0.000000
   10  C  1 XX    0.000000  -0.000000  -0.109034   0.061770   0.000000
   11  C  1 YY    0.000000  -0.000000  -0.109034  -0.061770   0.000000
   12  C  1 ZZ    0.000000  -0.000000   0.134887   0.000000   0.000000
   13  C  1 XY    0.000000  -0.000000   0.000000   0.000000   0.000000
   14  C  1 XZ    0.038609  -0.136940   0.000000   0.000000  -0.096563
   15  C  1 YZ    0.136940   0.038609   0.000000   0.000000   0.025856
   16  C  2  S    0.000000  -0.000000  -0.113413  -0.187388   0.000000
   17  C  2  S    0.000000  -0.000000  -0.031483  -0.230777   0.000000
   18  C  2  S    0.000000  -0.000000   0.561133   0.241529   0.000000
   19  C  2  X    0.195890  -0.694792   0.000000   0.000000  -0.663826
   20  C  2  Y   -0.057705  -0.016269   0.000000   0.000000   0.040144
   21  C  2  Z    0.000000  -0.000000  -0.081289   0.117763   0.000000
   22  C  2  X   -0.214132   0.759496   0.000000   0.000000   0.976768
   23  C  2  Y    0.481948   0.135881   0.000000   0.000000  -0.187958
   24  C  2  Z    0.000000  -0.000000   0.221083  -0.020003   0.000000
   25  C  2 XX    0.000000  -0.000000   0.131679   0.104925   0.000000
   26  C  2 YY    0.000000  -0.000000  -0.205858  -0.237979   0.000000
   27  C  2 ZZ    0.000000  -0.000000  -0.166221  -0.174462   0.000000
   28  C  2 XY    0.000000  -0.000000  -0.000000   0.000000   0.000000
   29  C  2 XZ   -0.024881   0.088248   0.000000   0.000000  -0.088242
   30  C  2 YZ    0.046026   0.012977   0.000000   0.000000  -0.012413
   31  C  3  S    0.000000  -0.000000  -0.113413   0.187388   0.000000
   32  C  3  S    0.000000  -0.000000  -0.031483   0.230777   0.000000
   33  C  3  S    0.000000  -0.000000   0.561133  -0.241529   0.000000
   34  C  3  X    0.016269  -0.057705   0.000000   0.000000   0.149925
   35  C  3  Y   -0.694792  -0.195890   0.000000   0.000000  -0.177748
   36  C  3  Z    0.000000  -0.000000   0.081289   0.117763   0.000000
   37  C  3  X   -0.135881   0.481948   0.000000   0.000000  -0.701955
   38  C  3  Y    0.759496   0.214132   0.000000   0.000000   0.261543
   39  C  3  Z    0.000000  -0.000000  -0.221083  -0.020003   0.000000
   40  C  3 XX    0.000000  -0.000000  -0.205858   0.237979   0.000000
   41  C  3 YY    0.000000  -0.000000   0.131679  -0.104925   0.000000
   42  C  3 ZZ    0.000000  -0.000000  -0.166221   0.174462   0.000000
   43  C  3 XY    0.000000  -0.000000   0.000000   0.000000   0.000000
   44  C  3 XZ    0.012977  -0.046026   0.000000   0.000000   0.046357
   45  C  3 YZ   -0.088248  -0.024881   0.000000   0.000000   0.023628
   46  H  4  S   -0.234257  -0.066046  -0.487786  -0.418298   0.059894
   47  H  4  S   -0.219474  -0.061879   0.138442   0.148943   0.120501
   48  H  4  X    0.006244  -0.022145   0.000000   0.000000  -0.026834
   49  H  4  Y    0.026950   0.007598  -0.099022  -0.090354  -0.012589
   50  H  4  Z   -0.028699  -0.008091  -0.048428  -0.057183   0.010473
   51  H  5  S    0.234257   0.066046  -0.487786  -0.418298  -0.059894
   52  H  5  S    0.219474   0.061879   0.138442   0.148943  -0.120501
   53  H  5  X    0.006244  -0.022145  -0.000000  -0.000000  -0.026834
   54  H  5  Y    0.026950   0.007598   0.099022   0.090354  -0.012589
   55  H  5  Z    0.028699   0.008091  -0.048428  -0.057183  -0.010473
   56  H  6  S    0.066046  -0.234257  -0.487786   0.418298   0.223681
   57  H  6  S    0.061879  -0.219474   0.138442  -0.148943   0.450027
   58  H  6  X   -0.007598   0.026950  -0.099022   0.090354  -0.047015
   59  H  6  Y   -0.022145  -0.006244  -0.000000   0.000000  -0.007185
   60  H  6  Z   -0.008091   0.028699   0.048428  -0.057183  -0.039112
   61  H  7  S   -0.066046   0.234257  -0.487786   0.418298  -0.223681
   62  H  7  S   -0.061879   0.219474   0.138442  -0.148943  -0.450027
   63  H  7  X   -0.007598   0.026950   0.099022  -0.090354  -0.047015
   64  H  7  Y   -0.022145  -0.006244   0.000000  -0.000000  -0.007185
   65  H  7  Z    0.008091  -0.028699   0.048428  -0.057183   0.039112

                     26         27         28         29         30
                    0.8218     0.8489     0.8489     0.9169     0.9634
                     A          A          A          A          A   
    1  C  1  S   -0.000000  -0.000000  -0.000000  -0.000000   0.000000
    2  C  1  S   -0.000000  -0.000000  -0.000000  -0.000000   0.000000
    3  C  1  S   -0.000000  -0.000000  -0.000000  -0.000000   0.000000
    4  C  1  X   -0.191952   0.065724   0.005341  -0.000000  -0.007767
    5  C  1  Y    0.716872  -0.005341   0.065724  -0.000000   0.452516
    6  C  1  Z   -0.000000  -0.000000  -0.000000  -0.366175   0.000000
    7  C  1  X    0.238176  -0.521798  -0.042403  -0.000000   0.031566
    8  C  1  Y   -0.889500   0.042403  -0.521798  -0.000000  -1.839003
    9  C  1  Z   -0.000000  -0.000000  -0.000000   5.777387   0.000000
   10  C  1 XX   -0.000000  -0.000000  -0.000000   0.022988   0.000000
   11  C  1 YY   -0.000000  -0.000000  -0.000000  -0.022988   0.000000
   12  C  1 ZZ   -0.000000  -0.000000  -0.000000  -0.000000   0.000000
   13  C  1 XY   -0.000000  -0.000000  -0.000000   0.000000   0.000000
   14  C  1 XZ    0.025856  -0.131085  -0.010652  -0.000000  -0.000024
   15  C  1 YZ    0.096563  -0.010652   0.131085  -0.000000  -0.001420
   16  C  2  S   -0.000000  -0.000000  -0.000000  -0.299713   0.000000
   17  C  2  S   -0.000000  -0.000000  -0.000000  -0.666518   0.000000
   18  C  2  S   -0.000000  -0.000000  -0.000000  -2.528099   0.000000
   19  C  2  X    0.177748   0.168761   0.013714  -0.000000   0.000458
   20  C  2  Y    0.149925  -0.044693   0.549970  -0.000000  -0.731680
   21  C  2  Z   -0.000000  -0.000000  -0.000000  -0.237189   0.000000
   22  C  2  X   -0.261543   0.140642   0.011429  -0.000000  -0.010749
   23  C  2  Y   -0.701955   0.040281  -0.495675  -0.000000   3.231988
   24  C  2  Z   -0.000000  -0.000000  -0.000000   2.460036   0.000000
   25  C  2 XX   -0.000000  -0.000000  -0.000000  -0.122970   0.000000
   26  C  2 YY   -0.000000  -0.000000  -0.000000   0.059213   0.000000
   27  C  2 ZZ   -0.000000  -0.000000  -0.000000  -0.293776   0.000000
   28  C  2 XY   -0.000000  -0.000000  -0.000000   0.000000   0.000000
   29  C  2 XZ    0.023628   0.086735   0.007048  -0.000000  -0.001380
   30  C  2 YZ   -0.046357   0.029986  -0.368989  -0.000000  -0.066953
   31  C  3  S   -0.000000  -0.000000  -0.000000   0.299713   0.000000
   32  C  3  S   -0.000000  -0.000000  -0.000000   0.666518   0.000000
   33  C  3  S   -0.000000  -0.000000  -0.000000   2.528099   0.000000
   34  C  3  X   -0.040144   0.549970   0.044693  -0.000000   0.012559
   35  C  3  Y   -0.663826  -0.013714   0.168761  -0.000000  -0.026677
   36  C  3  Z   -0.000000  -0.000000  -0.000000  -0.237189   0.000000
   37  C  3  X    0.187958  -0.495675  -0.040281  -0.000000  -0.055476
   38  C  3  Y    0.976768  -0.011429   0.140642  -0.000000   0.626242
   39  C  3  Z   -0.000000  -0.000000  -0.000000   2.460036   0.000000
   40  C  3 XX   -0.000000  -0.000000  -0.000000  -0.059213   0.000000
   41  C  3 YY   -0.000000  -0.000000  -0.000000   0.122970   0.000000
   42  C  3 ZZ   -0.000000  -0.000000  -0.000000   0.293776   0.000000
   43  C  3 XY   -0.000000  -0.000000  -0.000000   0.000000   0.000000
   44  C  3 XZ   -0.012413   0.368989   0.029986  -0.000000  -0.001149
   45  C  3 YZ    0.088242   0.007048  -0.086735  -0.000000  -0.080394
   46  H  4  S    0.223681   0.043530  -0.535663   0.259041  -0.388583
   47  H  4  S    0.450027  -0.082770   1.018533  -1.009867  -1.373797
   48  H  4  X    0.007185   0.038729   0.003147  -0.000000  -0.000668
   49  H  4  Y   -0.047015   0.011940  -0.146926   0.117175   0.115411
   50  H  4  Z    0.039112   0.012633  -0.155457  -0.005749   0.047572
   51  H  5  S   -0.223681  -0.043530   0.535663   0.259041   0.388583
   52  H  5  S   -0.450027   0.082770  -1.018533  -1.009867   1.373797
   53  H  5  X    0.007185   0.038729   0.003147  -0.000000  -0.000668
   54  H  5  Y   -0.047015   0.011940  -0.146926  -0.117175   0.115411
   55  H  5  Z   -0.039112  -0.012633   0.155457  -0.005749  -0.047572
   56  H  6  S   -0.059894  -0.535663  -0.043530  -0.259041   0.006670
   57  H  6  S   -0.120501   1.018533   0.082770   1.009867   0.023581
   58  H  6  X    0.012589  -0.146926  -0.011940  -0.117175  -0.001981
   59  H  6  Y   -0.026834  -0.003147   0.038729  -0.000000   0.038945
   60  H  6  Z    0.010473   0.155457   0.012633  -0.005749   0.000817
   61  H  7  S    0.059894   0.535663   0.043530  -0.259041  -0.006670
   62  H  7  S    0.120501  -1.018533  -0.082770   1.009867  -0.023581
   63  H  7  X    0.012589  -0.146926  -0.011940   0.117175  -0.001981
   64  H  7  Y   -0.026834  -0.003147   0.038729  -0.000000   0.038945
   65  H  7  Z   -0.010473  -0.155457  -0.012633  -0.005749  -0.000817

                     31         32         33         34         35
                    0.9634     0.9656     1.1207     1.2048     1.2231
                     A          A          A          A          A   
    1  C  1  S   -0.000000  -0.305591  -0.000000   0.000000  -0.000000
    2  C  1  S   -0.000000  -0.676367  -0.000000   0.000000  -0.000000
    3  C  1  S   -0.000000   2.708963  -0.000000  -0.000000  -0.000000
    4  C  1  X    0.452516  -0.000000  -0.000000  -0.000000  -0.000000
    5  C  1  Y    0.007767  -0.000000  -0.000000  -0.000000  -0.000000
    6  C  1  Z   -0.000000  -0.000000   0.000000  -0.000000  -0.495625
    7  C  1  X   -1.839003  -0.000000  -0.000000  -0.000000  -0.000000
    8  C  1  Y   -0.031566  -0.000000  -0.000000  -0.000000  -0.000000
    9  C  1  Z   -0.000000  -0.000000   0.000000  -0.000000  10.388051
   10  C  1 XX   -0.000000  -0.163917   0.000000   0.000000  -0.400235
   11  C  1 YY   -0.000000  -0.163917  -0.000000   0.000000   0.400235
   12  C  1 ZZ   -0.000000   0.077506  -0.000000  -0.000000  -0.000000
   13  C  1 XY   -0.000000  -0.000000   0.449363  -0.000000  -0.000000
   14  C  1 XZ    0.001420  -0.000000  -0.000000  -0.000000  -0.000000
   15  C  1 YZ   -0.000024  -0.000000  -0.000000  -0.000000  -0.000000
   16  C  2  S   -0.000000  -0.395304   0.000000  -0.000000   0.421595
   17  C  2  S   -0.000000  -0.798185   0.000000  -0.000000   0.833704
   18  C  2  S   -0.000000   1.453076  -0.000000   0.000000  -9.436991
   19  C  2  X   -0.026677  -0.000000  -0.000000  -0.000000  -0.000000
   20  C  2  Y   -0.012559  -0.000000  -0.000000  -0.000000  -0.000000
   21  C  2  Z   -0.000000  -0.384013   0.000000   0.000000   0.091238
   22  C  2  X    0.626242  -0.000000  -0.000000  -0.000000  -0.000000
   23  C  2  Y    0.055476  -0.000000  -0.000000  -0.000000  -0.000000
   24  C  2  Z   -0.000000   1.318049  -0.000000  -0.000000   3.656538
   25  C  2 XX   -0.000000  -0.125355  -0.000000  -0.000000  -0.029193
   26  C  2 YY   -0.000000   0.037850  -0.000000  -0.000000   0.346948
   27  C  2 ZZ   -0.000000  -0.339708   0.000000   0.000000  -0.059188
   28  C  2 XY   -0.000000   0.000000   0.403774  -0.449491   0.000000
   29  C  2 XZ    0.080394  -0.000000  -0.000000  -0.000000  -0.000000
   30  C  2 YZ   -0.001149  -0.000000  -0.000000  -0.000000  -0.000000
   31  C  3  S   -0.000000  -0.395304  -0.000000  -0.000000  -0.421595
   32  C  3  S   -0.000000  -0.798185  -0.000000  -0.000000  -0.833704
   33  C  3  S   -0.000000   1.453076   0.000000   0.000000   9.436991
   34  C  3  X   -0.731680  -0.000000  -0.000000  -0.000000  -0.000000
   35  C  3  Y   -0.000458  -0.000000  -0.000000  -0.000000  -0.000000
   36  C  3  Z   -0.000000   0.384013   0.000000  -0.000000   0.091238
   37  C  3  X    3.231988  -0.000000  -0.000000  -0.000000  -0.000000
   38  C  3  Y    0.010749  -0.000000  -0.000000  -0.000000  -0.000000
   39  C  3  Z   -0.000000  -1.318049  -0.000000   0.000000   3.656538
   40  C  3 XX   -0.000000   0.037850   0.000000  -0.000000  -0.346948
   41  C  3 YY   -0.000000  -0.125355   0.000000  -0.000000   0.029193
   42  C  3 ZZ   -0.000000  -0.339708  -0.000000   0.000000   0.059188
   43  C  3 XY   -0.000000  -0.000000   0.403774   0.449491   0.000000
   44  C  3 XZ    0.066953  -0.000000  -0.000000  -0.000000  -0.000000
   45  C  3 YZ   -0.001380  -0.000000  -0.000000  -0.000000  -0.000000
   46  H  4  S   -0.006670   0.125364   0.000000  -0.000000   0.013715
   47  H  4  S   -0.023581  -0.981583   0.000000  -0.000000  -0.077860
   48  H  4  X    0.038945  -0.000000   0.171173  -0.249652   0.000000
   49  H  4  Y    0.001981   0.114586  -0.000000   0.000000  -0.045542
   50  H  4  Z    0.000817   0.016167   0.000000  -0.000000  -0.122198
   51  H  5  S    0.006670   0.125364   0.000000  -0.000000   0.013715
   52  H  5  S    0.023581  -0.981583   0.000000  -0.000000  -0.077860
   53  H  5  X    0.038945   0.000000  -0.171173   0.249652  -0.000000
   54  H  5  Y    0.001981  -0.114586   0.000000  -0.000000   0.045542
   55  H  5  Z   -0.000817   0.016167   0.000000  -0.000000  -0.122198
   56  H  6  S   -0.388583   0.125364  -0.000000  -0.000000  -0.013715
   57  H  6  S   -1.373797  -0.981583  -0.000000  -0.000000   0.077860
   58  H  6  X    0.115411   0.114586   0.000000   0.000000   0.045542
   59  H  6  Y    0.000668   0.000000   0.171173   0.249652   0.000000
   60  H  6  Z   -0.047572  -0.016167   0.000000  -0.000000  -0.122198
   61  H  7  S    0.388583   0.125364  -0.000000  -0.000000  -0.013715
   62  H  7  S    1.373797  -0.981583  -0.000000  -0.000000   0.077860
   63  H  7  X    0.115411  -0.114586  -0.000000  -0.000000  -0.045542
   64  H  7  Y    0.000668  -0.000000  -0.171173  -0.249652  -0.000000
   65  H  7  Z    0.047572  -0.016167   0.000000  -0.000000  -0.122198

                     36         37         38         39         40
                    1.2639     1.2758     1.4257     1.4835     1.5005
                     A          A          A          A          A   
    1  C  1  S   -0.704227   0.000000   0.000000   0.000000  -0.000000
    2  C  1  S   -1.446235   0.000000   0.000000   0.000000  -0.000000
    3  C  1  S    8.770025   0.000000   0.000000   0.000000  -0.000000
    4  C  1  X    0.000000   0.000000   0.000000   0.000000  -0.002493
    5  C  1  Y    0.000000   0.000000   0.000000   0.000000  -0.098854
    6  C  1  Z    0.000000   0.402132  -0.277043  -0.000000  -0.000000
    7  C  1  X    0.000000   0.000000   0.000000   0.000000  -0.029445
    8  C  1  Y    0.000000   0.000000   0.000000   0.000000  -1.167503
    9  C  1  Z    0.000000   4.703586  10.412432   0.000000  -0.000000
   10  C  1 XX   -0.306292  -0.119569   0.640161   0.000000  -0.000000
   11  C  1 YY   -0.306292   0.119569  -0.640161  -0.000000  -0.000000
   12  C  1 ZZ    0.280451   0.000000   0.000000   0.000000  -0.000000
   13  C  1 XY    0.000000  -0.000000  -0.000000   0.808102  -0.000000
   14  C  1 XZ    0.000000   0.000000   0.000000   0.000000   0.010213
   15  C  1 YZ    0.000000   0.000000   0.000000   0.000000  -0.404934
   16  C  2  S    0.425650  -0.238808   0.432429   0.000000  -0.000000
   17  C  2  S    0.866623  -0.590017   0.777012   0.000000  -0.000000
   18  C  2  S   -4.618813  -3.016430  -9.891197  -0.000000  -0.000000
   19  C  2  X    0.000000   0.000000   0.000000   0.000000  -0.004274
   20  C  2  Y    0.000000   0.000000   0.000000   0.000000   0.030065
   21  C  2  Z    0.026557   0.709699   0.250132   0.000000  -0.000000
   22  C  2  X    0.000000   0.000000   0.000000   0.000000   0.018329
   23  C  2  Y    0.000000   0.000000   0.000000   0.000000   1.376504
   24  C  2  Z    2.075459   0.872248   3.132455   0.000000  -0.000000
   25  C  2 XX    0.018356  -0.230964   0.185911   0.000000  -0.000000
   26  C  2 YY    0.325260  -0.117170   0.061300   0.000000  -0.000000
   27  C  2 ZZ   -0.160617   0.135207  -0.016526  -0.000000  -0.000000
   28  C  2 XY   -0.000000  -0.000000   0.000000  -0.087472  -0.000000
   29  C  2 XZ    0.000000   0.000000   0.000000   0.000000  -0.016069
   30  C  2 YZ    0.000000   0.000000   0.000000   0.000000  -0.047858
   31  C  3  S    0.425650   0.238808  -0.432429  -0.000000  -0.000000
   32  C  3  S    0.866623   0.590017  -0.777012  -0.000000  -0.000000
   33  C  3  S   -4.618813   3.016430   9.891197   0.000000  -0.000000
   34  C  3  X    0.000000   0.000000   0.000000   0.000000   0.000758
   35  C  3  Y    0.000000   0.000000   0.000000   0.000000  -0.169476
   36  C  3  Z   -0.026557   0.709699   0.250132   0.000000  -0.000000
   37  C  3  X    0.000000   0.000000   0.000000   0.000000   0.034716
   38  C  3  Y    0.000000   0.000000   0.000000   0.000000   0.726750
   39  C  3  Z   -2.075459   0.872248   3.132455   0.000000  -0.000000
   40  C  3 XX    0.325260   0.117170  -0.061300  -0.000000  -0.000000
   41  C  3 YY    0.018356   0.230964  -0.185911  -0.000000  -0.000000
   42  C  3 ZZ   -0.160617  -0.135207   0.016526   0.000000  -0.000000
   43  C  3 XY    0.000000  -0.000000   0.000000  -0.087472  -0.000000
   44  C  3 XZ    0.000000   0.000000   0.000000   0.000000   0.001207
   45  C  3 YZ    0.000000   0.000000   0.000000   0.000000   0.637142
   46  H  4  S    0.133809   0.091773   0.376080   0.000000  -0.396290
   47  H  4  S    0.040685  -0.141296   0.063900   0.000000  -0.345251
   48  H  4  X   -0.000000  -0.000000   0.000000  -0.287048  -0.005989
   49  H  4  Y   -0.063080  -0.052653  -0.046788  -0.000000   0.046239
   50  H  4  Z   -0.047288   0.006811  -0.017081  -0.000000  -0.203263
   51  H  5  S    0.133809   0.091773   0.376080   0.000000   0.396290
   52  H  5  S    0.040685  -0.141296   0.063900   0.000000   0.345251
   53  H  5  X    0.000000   0.000000  -0.000000   0.287048  -0.005989
   54  H  5  Y    0.063080   0.052653   0.046788   0.000000   0.046239
   55  H  5  Z   -0.047288   0.006811  -0.017081  -0.000000   0.203263
   56  H  6  S    0.133809  -0.091773  -0.376080  -0.000000  -0.009995
   57  H  6  S    0.040685   0.141296  -0.063900  -0.000000  -0.008707
   58  H  6  X   -0.063080   0.052653   0.046788   0.000000   0.001166
   59  H  6  Y    0.000000  -0.000000   0.000000  -0.287048  -0.237484
   60  H  6  Z    0.047288   0.006811  -0.017081  -0.000000   0.005126
   61  H  7  S    0.133809  -0.091773  -0.376080  -0.000000   0.009995
   62  H  7  S    0.040685   0.141296  -0.063900  -0.000000   0.008707
   63  H  7  X    0.063080  -0.052653  -0.046788  -0.000000   0.001166
   64  H  7  Y   -0.000000   0.000000  -0.000000   0.287048  -0.237484
   65  H  7  Z    0.047288   0.006811  -0.017081  -0.000000  -0.005126

                     41         42         43         44         45
                    1.5005     1.7159     1.7308     1.7308     1.8603
                     A          A          A          A          A   
    1  C  1  S    0.000000   0.375614  -0.000000   0.000000   0.000000
    2  C  1  S    0.000000   0.698572  -0.000000   0.000000   0.000000
    3  C  1  S    0.000000   0.241427  -0.000000   0.000000   0.000000
    4  C  1  X   -0.098854  -0.000000   0.001310   0.033094   0.155571
    5  C  1  Y    0.002493  -0.000000   0.033094  -0.001310   0.063251
    6  C  1  Z    0.000000  -0.000000  -0.000000   0.000000   0.000000
    7  C  1  X   -1.167503  -0.000000  -0.028482  -0.719435   0.252905
    8  C  1  Y    0.029445  -0.000000  -0.719435   0.028482   0.102824
    9  C  1  Z    0.000000  -0.000000  -0.000000   0.000000   0.000000
   10  C  1 XX    0.000000   0.226845  -0.000000   0.000000   0.000000
   11  C  1 YY    0.000000   0.226845  -0.000000   0.000000   0.000000
   12  C  1 ZZ    0.000000   0.158502  -0.000000   0.000000   0.000000
   13  C  1 XY    0.000000  -0.000000  -0.000000   0.000000   0.000000
   14  C  1 XZ    0.404934  -0.000000   0.007372   0.186206   0.497886
   15  C  1 YZ    0.010213  -0.000000  -0.186206   0.007372  -0.202427
   16  C  2  S    0.000000  -0.095126  -0.000000   0.000000   0.000000
   17  C  2  S    0.000000  -0.201974  -0.000000   0.000000   0.000000
   18  C  2  S    0.000000   0.243954  -0.000000   0.000000   0.000000
   19  C  2  X   -0.169476  -0.000000  -0.001718  -0.043404  -0.314119
   20  C  2  Y   -0.000758  -0.000000  -0.089319   0.003536   0.023038
   21  C  2  Z    0.000000   0.199775  -0.000000   0.000000   0.000000
   22  C  2  X    0.726750  -0.000000   0.008713   0.220082  -0.461758
   23  C  2  Y   -0.034716  -0.000000   1.866155  -0.073879  -0.040884
   24  C  2  Z    0.000000   0.783112  -0.000000   0.000000   0.000000
   25  C  2 XX    0.000000  -0.169978  -0.000000   0.000000   0.000000
   26  C  2 YY    0.000000   0.446758  -0.000000   0.000000   0.000000
   27  C  2 ZZ    0.000000  -0.326533  -0.000000   0.000000   0.000000
   28  C  2 XY    0.000000   0.000000  -0.000000   0.000000   0.000000
   29  C  2 XZ   -0.637142  -0.000000  -0.002099  -0.053031   0.114334
   30  C  2 YZ    0.001207  -0.000000   0.246506  -0.009759   0.105736
   31  C  3  S    0.000000  -0.095126  -0.000000   0.000000   0.000000
   32  C  3  S    0.000000  -0.201974  -0.000000   0.000000   0.000000
   33  C  3  S    0.000000   0.243954  -0.000000   0.000000   0.000000
   34  C  3  X    0.030065  -0.000000  -0.003536  -0.089319   0.056664
   35  C  3  Y    0.004274  -0.000000  -0.043404   0.001718  -0.127712
   36  C  3  Z    0.000000  -0.199775  -0.000000   0.000000   0.000000
   37  C  3  X    1.376504  -0.000000   0.073879   1.866155  -0.100557
   38  C  3  Y   -0.018329  -0.000000   0.220082  -0.008713  -0.187738
   39  C  3  Z    0.000000  -0.783112  -0.000000   0.000000   0.000000
   40  C  3 XX    0.000000   0.446758  -0.000000   0.000000   0.000000
   41  C  3 YY    0.000000  -0.169978  -0.000000   0.000000   0.000000
   42  C  3 ZZ    0.000000  -0.326533  -0.000000   0.000000   0.000000
   43  C  3 XY    0.000000  -0.000000  -0.000000   0.000000   0.000000
   44  C  3 XZ    0.047858  -0.000000  -0.009759  -0.246506  -0.260067
   45  C  3 YZ   -0.016069  -0.000000   0.053031  -0.002099  -0.046485
   46  H  4  S    0.009995  -0.378647  -0.645303   0.025547  -0.065255
   47  H  4  S    0.008707  -0.088941  -0.553217   0.021901   0.065163
   48  H  4  X   -0.237484   0.000000  -0.000474  -0.011983   0.562212
   49  H  4  Y   -0.001166   0.071081  -0.495698   0.019624   0.000254
   50  H  4  Z    0.005126  -0.336236   0.426975  -0.016903  -0.104140
   51  H  5  S   -0.009995  -0.378647   0.645303  -0.025547   0.065255
   52  H  5  S   -0.008707  -0.088941   0.553217  -0.021901  -0.065163
   53  H  5  X   -0.237484  -0.000000  -0.000474  -0.011983   0.562212
   54  H  5  Y   -0.001166  -0.071081  -0.495698   0.019624   0.000254
   55  H  5  Z   -0.005126  -0.336236  -0.426975   0.016903   0.104140
   56  H  6  S   -0.396290  -0.378647  -0.025547  -0.645303  -0.160501
   57  H  6  S   -0.345251  -0.088941  -0.021901  -0.553217   0.160274
   58  H  6  X    0.046239   0.071081  -0.019624  -0.495698   0.000626
   59  H  6  Y    0.005989  -0.000000  -0.011983   0.000474   0.228580
   60  H  6  Z    0.203263   0.336236  -0.016903  -0.426975   0.256142
   61  H  7  S    0.396290  -0.378647   0.025547   0.645303   0.160501
   62  H  7  S    0.345251  -0.088941   0.021901   0.553217  -0.160274
   63  H  7  X    0.046239  -0.071081  -0.019624  -0.495698   0.000626
   64  H  7  Y    0.005989   0.000000  -0.011983   0.000474   0.228580
   65  H  7  Z   -0.203263   0.336236   0.016903   0.426975  -0.256142

                     46         47         48         49         50
                    1.8603     1.8731     1.9195     2.0855     2.0855
                     A          A          A          A          A   
    1  C  1  S    0.000000   0.241656  -0.000000   0.000000  -0.000000
    2  C  1  S    0.000000   0.275229  -0.000000   0.000000  -0.000000
    3  C  1  S    0.000000   3.109324  -0.000000   0.000000  -0.000000
    4  C  1  X   -0.063251  -0.000000  -0.000000   0.344498  -0.253889
    5  C  1  Y    0.155571  -0.000000  -0.000000  -0.253889  -0.344498
    6  C  1  Z    0.000000  -0.000000  -0.714774   0.000000  -0.000000
    7  C  1  X   -0.102824  -0.000000  -0.000000   0.037250  -0.027452
    8  C  1  Y    0.252905  -0.000000  -0.000000  -0.027452  -0.037250
    9  C  1  Z    0.000000  -0.000000   2.609710   0.000000  -0.000000
   10  C  1 XX    0.000000   0.344333  -0.279076   0.000000  -0.000000
   11  C  1 YY    0.000000   0.344333   0.279076   0.000000  -0.000000
   12  C  1 ZZ    0.000000   0.365229  -0.000000   0.000000  -0.000000
   13  C  1 XY    0.000000  -0.000000   0.000000   0.000000  -0.000000
   14  C  1 XZ   -0.202427  -0.000000  -0.000000   0.249049  -0.183544
   15  C  1 YZ   -0.497886  -0.000000  -0.000000   0.183544   0.249049
   16  C  2  S    0.000000   0.337738   0.180108   0.000000  -0.000000
   17  C  2  S    0.000000   0.539827   0.346483   0.000000  -0.000000
   18  C  2  S    0.000000  -2.785286  -2.490179   0.000000  -0.000000
   19  C  2  X    0.127712  -0.000000  -0.000000   0.035970  -0.026510
   20  C  2  Y    0.056664  -0.000000  -0.000000   0.070944   0.096263
   21  C  2  Z    0.000000   0.262029  -0.121942   0.000000  -0.000000
   22  C  2  X    0.187738  -0.000000  -0.000000   0.070829  -0.052199
   23  C  2  Y   -0.100557  -0.000000  -0.000000   0.064373   0.087348
   24  C  2  Z    0.000000   1.013564   0.024578   0.000000  -0.000000
   25  C  2 XX    0.000000   0.876690   0.206483   0.000000  -0.000000
   26  C  2 YY    0.000000   0.099505  -0.149621   0.000000  -0.000000
   27  C  2 ZZ    0.000000  -0.605566   0.167817   0.000000  -0.000000
   28  C  2 XY    0.000000  -0.000000  -0.000000   0.000000  -0.000000
   29  C  2 XZ   -0.046485  -0.000000  -0.000000   0.722516  -0.532481
   30  C  2 YZ    0.260067  -0.000000  -0.000000  -0.257500  -0.349399
   31  C  3  S    0.000000   0.337738  -0.180108   0.000000  -0.000000
   32  C  3  S    0.000000   0.539827  -0.346483   0.000000  -0.000000
   33  C  3  S    0.000000  -2.785286   2.490179   0.000000  -0.000000
   34  C  3  X   -0.023038  -0.000000  -0.000000  -0.096263   0.070944
   35  C  3  Y   -0.314119  -0.000000  -0.000000  -0.026510  -0.035970
   36  C  3  Z    0.000000  -0.262029  -0.121942   0.000000  -0.000000
   37  C  3  X    0.040884  -0.000000  -0.000000  -0.087348   0.064373
   38  C  3  Y   -0.461758  -0.000000  -0.000000  -0.052199  -0.070829
   39  C  3  Z    0.000000  -1.013564   0.024578   0.000000  -0.000000
   40  C  3 XX    0.000000   0.099505   0.149621   0.000000  -0.000000
   41  C  3 YY    0.000000   0.876690  -0.206483   0.000000  -0.000000
   42  C  3 ZZ    0.000000  -0.605566  -0.167817   0.000000  -0.000000
   43  C  3 XY    0.000000   0.000000  -0.000000   0.000000  -0.000000
   44  C  3 XZ    0.105736  -0.000000  -0.000000  -0.349399   0.257500
   45  C  3 YZ   -0.114334  -0.000000  -0.000000   0.532481   0.722516
   46  H  4  S   -0.160501   0.263254   0.264023   0.094112   0.127700
   47  H  4  S    0.160274   0.107387   0.108247  -0.129606  -0.175861
   48  H  4  X   -0.228580   0.000000  -0.000000  -0.420760   0.310092
   49  H  4  Y    0.000626   0.109436  -0.095686   0.035036   0.047540
   50  H  4  Z   -0.256142   0.021181   0.445229   0.201529   0.273452
   51  H  5  S    0.160501   0.263254   0.264023  -0.094112  -0.127700
   52  H  5  S   -0.160274   0.107387   0.108247   0.129606   0.175861
   53  H  5  X   -0.228580  -0.000000   0.000000  -0.420760   0.310092
   54  H  5  Y    0.000626  -0.109436   0.095686   0.035036   0.047540
   55  H  5  Z    0.256142   0.021181   0.445229  -0.201529  -0.273452
   56  H  6  S    0.065255   0.263254  -0.264023  -0.127700   0.094112
   57  H  6  S   -0.065163   0.107387  -0.108247   0.175861  -0.129606
   58  H  6  X   -0.000254   0.109436   0.095686  -0.047540   0.035036
   59  H  6  Y    0.562212  -0.000000  -0.000000   0.310092   0.420760
   60  H  6  Z   -0.104140  -0.021181   0.445229   0.273452  -0.201529
   61  H  7  S   -0.065255   0.263254  -0.264023   0.127700  -0.094112
   62  H  7  S    0.065163   0.107387  -0.108247  -0.175861   0.129606
   63  H  7  X   -0.000254  -0.109436  -0.095686  -0.047540   0.035036
   64  H  7  Y    0.562212   0.000000   0.000000   0.310092   0.420760
   65  H  7  Z    0.104140  -0.021181   0.445229  -0.273452   0.201529

                     51         52         53         54         55
                    2.1084     2.1776     2.2863     2.4731     2.5557
                     A          A          A          A          A   
    1  C  1  S    0.000000  -0.000000  -0.000000  -0.372308   0.000000
    2  C  1  S    0.000000  -0.000000  -0.000000  -0.295360   0.000000
    3  C  1  S    0.000000  -0.000000  -0.000000   5.607460   0.000000
    4  C  1  X    0.000000  -0.000000  -0.000000  -0.000000  -0.005184
    5  C  1  Y    0.000000  -0.000000  -0.000000  -0.000000   0.000055
    6  C  1  Z    0.000000   0.779043   0.000000  -0.000000   0.000000
    7  C  1  X    0.000000  -0.000000  -0.000000  -0.000000  -0.041173
    8  C  1  Y    0.000000  -0.000000  -0.000000  -0.000000   0.000437
    9  C  1  Z    0.000000   7.096208   0.000000  -0.000000   0.000000
   10  C  1 XX    0.000000  -0.297848  -0.000000  -0.806844   0.000000
   11  C  1 YY    0.000000   0.297848   0.000000  -0.806844   0.000000
   12  C  1 ZZ    0.000000  -0.000000  -0.000000   0.107759   0.000000
   13  C  1 XY    0.000000   0.000000  -0.492589  -0.000000   0.000000
   14  C  1 XZ    0.000000  -0.000000  -0.000000  -0.000000   0.992743
   15  C  1 YZ    0.000000  -0.000000  -0.000000  -0.000000   0.010543
   16  C  2  S    0.000000   0.359284   0.000000   0.098448   0.000000
   17  C  2  S    0.000000   0.512911   0.000000   0.350143   0.000000
   18  C  2  S   -0.000000  -7.059431  -0.000000  -1.424630   0.000000
   19  C  2  X    0.000000  -0.000000  -0.000000  -0.000000  -0.218746
   20  C  2  Y    0.000000  -0.000000  -0.000000  -0.000000  -0.011941
   21  C  2  Z    0.000000   0.548019   0.000000   0.349809   0.000000
   22  C  2  X    0.000000  -0.000000  -0.000000  -0.000000  -0.107965
   23  C  2  Y    0.000000  -0.000000  -0.000000  -0.000000  -0.008615
   24  C  2  Z    0.000000   2.804441   0.000000   1.490191   0.000000
   25  C  2 XX    0.000000   0.878791   0.000000  -0.066202   0.000000
   26  C  2 YY   -0.000000   0.069805  -0.000000  -0.686733   0.000000
   27  C  2 ZZ   -0.000000  -0.429728  -0.000000   0.085018   0.000000
   28  C  2 XY    0.721747  -0.000000   0.787309  -0.000000   0.000000
   29  C  2 XZ    0.000000  -0.000000  -0.000000  -0.000000   0.647715
   30  C  2 YZ    0.000000  -0.000000  -0.000000  -0.000000   0.001291
   31  C  3  S    0.000000  -0.359284  -0.000000   0.098448   0.000000
   32  C  3  S    0.000000  -0.512911  -0.000000   0.350143   0.000000
   33  C  3  S   -0.000000   7.059431   0.000000  -1.424630   0.000000
   34  C  3  X    0.000000  -0.000000  -0.000000  -0.000000   1.124360
   35  C  3  Y    0.000000  -0.000000  -0.000000  -0.000000   0.002323
   36  C  3  Z   -0.000000   0.548019   0.000000  -0.349809   0.000000
   37  C  3  X    0.000000  -0.000000  -0.000000  -0.000000   0.811156
   38  C  3  Y    0.000000  -0.000000  -0.000000  -0.000000   0.001147
   39  C  3  Z   -0.000000   2.804441   0.000000  -1.490191   0.000000
   40  C  3 XX   -0.000000  -0.069805   0.000000  -0.686733   0.000000
   41  C  3 YY    0.000000  -0.878791  -0.000000  -0.066202   0.000000
   42  C  3 ZZ   -0.000000   0.429728   0.000000   0.085018   0.000000
   43  C  3 XY   -0.721747  -0.000000   0.787309   0.000000   0.000000
   44  C  3 XZ    0.000000  -0.000000  -0.000000  -0.000000   0.121535
   45  C  3 YZ    0.000000  -0.000000  -0.000000  -0.000000   0.006879
   46  H  4  S    0.000000   0.259603   0.000000   0.179016   0.005159
   47  H  4  S    0.000000  -0.191020  -0.000000  -0.423264   0.006312
   48  H  4  X   -0.550323   0.000000  -0.511554   0.000000  -0.114372
   49  H  4  Y    0.000000   0.249406   0.000000   0.401469  -0.005831
   50  H  4  Z   -0.000000  -0.024521  -0.000000  -0.366214  -0.006195
   51  H  5  S    0.000000   0.259603   0.000000   0.179016  -0.005159
   52  H  5  S    0.000000  -0.191020  -0.000000  -0.423264  -0.006312
   53  H  5  X    0.550323  -0.000000   0.511554  -0.000000  -0.114372
   54  H  5  Y    0.000000  -0.249406  -0.000000  -0.401469  -0.005831
   55  H  5  Z   -0.000000  -0.024521  -0.000000  -0.366214   0.006195
   56  H  6  S    0.000000  -0.259603  -0.000000   0.179016  -0.485771
   57  H  6  S    0.000000   0.191020   0.000000  -0.423264  -0.594332
   58  H  6  X    0.000000  -0.249406  -0.000000   0.401469   0.549076
   59  H  6  Y    0.550323   0.000000  -0.511554  -0.000000   0.001215
   60  H  6  Z    0.000000  -0.024521  -0.000000   0.366214  -0.583303
   61  H  7  S    0.000000  -0.259603  -0.000000   0.179016   0.485771
   62  H  7  S    0.000000   0.191020   0.000000  -0.423264   0.594332
   63  H  7  X    0.000000   0.249406   0.000000  -0.401469   0.549076
   64  H  7  Y   -0.550323  -0.000000   0.511554   0.000000   0.001215
   65  H  7  Z    0.000000  -0.024521  -0.000000   0.366214   0.583303

                     56         57         58         59         60
                    2.5557     2.5908     2.6570     2.8446     2.9668
                     A          A          A          A          A   
    1  C  1  S    0.000000   0.000000   0.264837   0.495962  -0.000000
    2  C  1  S    0.000000   0.000000   1.136041   1.131990  -0.000000
    3  C  1  S    0.000000   0.000000   4.139365  -0.822544  -0.000000
    4  C  1  X   -0.000055   0.000000  -0.000000   0.000000  -0.000000
    5  C  1  Y   -0.005184   0.000000  -0.000000   0.000000  -0.000000
    6  C  1  Z    0.000000  -0.748922  -0.000000   0.000000  -0.853389
    7  C  1  X   -0.000437   0.000000  -0.000000   0.000000  -0.000000
    8  C  1  Y   -0.041173   0.000000  -0.000000   0.000000  -0.000000
    9  C  1  Z    0.000000   1.943150  -0.000000   0.000000   5.247577
   10  C  1 XX    0.000000  -0.037017  -1.171614  -0.487616  -0.231443
   11  C  1 YY    0.000000   0.037017  -1.171614  -0.487616   0.231443
   12  C  1 ZZ    0.000000   0.000000   0.260601   0.474597  -0.000000
   13  C  1 XY    0.000000   0.000000  -0.000000   0.000000   0.000000
   14  C  1 XZ    0.010543   0.000000  -0.000000   0.000000  -0.000000
   15  C  1 YZ   -0.992743   0.000000  -0.000000   0.000000  -0.000000
   16  C  2  S    0.000000   0.224506  -0.276758  -0.024654   0.012028
   17  C  2  S    0.000000   0.703265  -0.579961   0.279367  -0.341344
   18  C  2  S    0.000000  -0.486638  -1.780353   1.924188  -5.914654
   19  C  2  X   -0.002323   0.000000  -0.000000   0.000000  -0.000000
   20  C  2  Y    1.124360   0.000000  -0.000000   0.000000  -0.000000
   21  C  2  Z    0.000000   0.189660   0.053353   0.751738  -0.451180
   22  C  2  X   -0.001147   0.000000  -0.000000   0.000000  -0.000000
   23  C  2  Y    0.811156   0.000000  -0.000000   0.000000  -0.000000
   24  C  2  Z    0.000000   0.820956   0.692517  -0.062687   1.532385
   25  C  2 XX    0.000000  -0.539470   0.413565  -0.624680   0.816402
   26  C  2 YY    0.000000  -0.550044  -0.181133   0.578637  -0.643743
   27  C  2 ZZ    0.000000   0.466764  -0.766893  -1.023144   1.027764
   28  C  2 XY    0.000000  -0.000000  -0.000000   0.000000  -0.000000
   29  C  2 XZ    0.006879   0.000000  -0.000000   0.000000  -0.000000
   30  C  2 YZ   -0.121535   0.000000  -0.000000   0.000000  -0.000000
   31  C  3  S    0.000000  -0.224506  -0.276758  -0.024654  -0.012028
   32  C  3  S    0.000000  -0.703265  -0.579961   0.279367   0.341344
   33  C  3  S    0.000000   0.486638  -1.780353   1.924188   5.914654
   34  C  3  X    0.011941   0.000000  -0.000000   0.000000  -0.000000
   35  C  3  Y   -0.218746   0.000000  -0.000000   0.000000  -0.000000
   36  C  3  Z    0.000000   0.189660  -0.053353  -0.751738  -0.451180
   37  C  3  X    0.008615   0.000000  -0.000000   0.000000  -0.000000
   38  C  3  Y   -0.107965   0.000000  -0.000000   0.000000  -0.000000
   39  C  3  Z    0.000000   0.820956  -0.692517   0.062687   1.532385
   40  C  3 XX    0.000000   0.550044  -0.181133   0.578637   0.643743
   41  C  3 YY    0.000000   0.539470   0.413565  -0.624680  -0.816402
   42  C  3 ZZ    0.000000  -0.466764  -0.766893  -1.023144  -1.027764
   43  C  3 XY    0.000000  -0.000000   0.000000  -0.000000  -0.000000
   44  C  3 XZ    0.001291   0.000000  -0.000000   0.000000  -0.000000
   45  C  3 YZ   -0.647715   0.000000  -0.000000   0.000000  -0.000000
   46  H  4  S   -0.485771  -0.177696   0.537618  -0.607137   0.739087
   47  H  4  S   -0.594332  -0.400714   0.027550  -0.338176   0.185928
   48  H  4  X   -0.001215   0.000000   0.000000  -0.000000   0.000000
   49  H  4  Y    0.549076   0.583724  -0.520269   0.297307  -0.247571
   50  H  4  Z    0.583303  -0.113607  -0.137415   0.585865  -0.585395
   51  H  5  S    0.485771  -0.177696   0.537618  -0.607137   0.739087
   52  H  5  S    0.594332  -0.400714   0.027550  -0.338176   0.185928
   53  H  5  X   -0.001215  -0.000000  -0.000000   0.000000  -0.000000
   54  H  5  Y    0.549076  -0.583724   0.520269  -0.297307   0.247571
   55  H  5  Z   -0.583303  -0.113607  -0.137415   0.585865  -0.585395
   56  H  6  S   -0.005159   0.177696   0.537618  -0.607137  -0.739087
   57  H  6  S   -0.006312   0.400714   0.027550  -0.338176  -0.185928
   58  H  6  X    0.005831  -0.583724  -0.520269   0.297307   0.247571
   59  H  6  Y   -0.114372   0.000000  -0.000000   0.000000   0.000000
   60  H  6  Z   -0.006195  -0.113607   0.137415  -0.585865  -0.585395
   61  H  7  S    0.005159   0.177696   0.537618  -0.607137  -0.739087
   62  H  7  S    0.006312   0.400714   0.027550  -0.338176  -0.185928
   63  H  7  X    0.005831   0.583724   0.520269  -0.297307  -0.247571
   64  H  7  Y   -0.114372  -0.000000   0.000000  -0.000000  -0.000000
   65  H  7  Z    0.006195  -0.113607   0.137415  -0.585865  -0.585395

                     61         62         63         64         65
                    3.1295     3.1295     3.1911     3.2682     4.1297
                     A          A          A          A          A   
    1  C  1  S   -0.000000   0.000000  -0.268748   0.000000   0.534435
    2  C  1  S   -0.000000   0.000000  -0.467249   0.000000   0.219991
    3  C  1  S   -0.000000   0.000000   3.215294   0.000000  -2.882654
    4  C  1  X   -0.219967   0.185244  -0.000000   0.000000  -0.000000
    5  C  1  Y    0.185244   0.219967  -0.000000   0.000000  -0.000000
    6  C  1  Z   -0.000000   0.000000  -0.000000   0.612399  -0.000000
    7  C  1  X    0.164512  -0.138543  -0.000000   0.000000  -0.000000
    8  C  1  Y   -0.138543  -0.164512  -0.000000   0.000000  -0.000000
    9  C  1  Z   -0.000000   0.000000  -0.000000   2.025471  -0.000000
   10  C  1 XX   -0.000000   0.000000  -0.406236  -0.212151   0.602792
   11  C  1 YY   -0.000000   0.000000  -0.406236   0.212151   0.602792
   12  C  1 ZZ   -0.000000   0.000000   0.941405   0.000000   3.855573
   13  C  1 XY   -0.000000   0.000000  -0.000000  -0.000000  -0.000000
   14  C  1 XZ    0.918576  -0.773570  -0.000000   0.000000  -0.000000
   15  C  1 YZ    0.773570   0.918576  -0.000000   0.000000  -0.000000
   16  C  2  S   -0.000000   0.000000  -0.024928  -0.284459  -0.995574
   17  C  2  S   -0.000000   0.000000  -0.667314   0.084073  -1.496738
   18  C  2  S   -0.000000   0.000000  -2.765814   0.046045   2.008538
   19  C  2  X   -0.204067   0.171853  -0.000000   0.000000  -0.000000
   20  C  2  Y    0.599263   0.711594  -0.000000   0.000000  -0.000000
   21  C  2  Z   -0.000000   0.000000   0.742166  -0.253750   1.142934
   22  C  2  X   -0.128441   0.108165  -0.000000   0.000000  -0.000000
   23  C  2  Y    0.506126   0.600999  -0.000000   0.000000  -0.000000
   24  C  2  Z   -0.000000   0.000000   0.618449   0.502633  -0.341233
   25  C  2 XX   -0.000000   0.000000   0.852242  -0.606618  -0.295732
   26  C  2 YY   -0.000000   0.000000   1.354784  -1.752188  -0.853448
   27  C  2 ZZ   -0.000000   0.000000   0.808376  -1.274283  -1.524255
   28  C  2 XY   -0.000000   0.000000   0.000000  -0.000000  -0.000000
   29  C  2 XZ    0.436352  -0.367470  -0.000000   0.000000  -0.000000
   30  C  2 YZ    1.327049   1.575804  -0.000000   0.000000  -0.000000
   31  C  3  S   -0.000000   0.000000  -0.024928   0.284459  -0.995574
   32  C  3  S   -0.000000   0.000000  -0.667314  -0.084073  -1.496738
   33  C  3  S   -0.000000   0.000000  -2.765814  -0.046045   2.008538
   34  C  3  X   -0.711594   0.599263  -0.000000   0.000000  -0.000000
   35  C  3  Y    0.171853   0.204067  -0.000000   0.000000  -0.000000
   36  C  3  Z   -0.000000   0.000000  -0.742166  -0.253750  -1.142934
   37  C  3  X   -0.600999   0.506126  -0.000000   0.000000  -0.000000
   38  C  3  Y    0.108165   0.128441  -0.000000   0.000000  -0.000000
   39  C  3  Z   -0.000000   0.000000  -0.618449   0.502633   0.341233
   40  C  3 XX   -0.000000   0.000000   1.354784   1.752188  -0.853448
   41  C  3 YY   -0.000000   0.000000   0.852242   0.606618  -0.295732
   42  C  3 ZZ   -0.000000   0.000000   0.808376   1.274283  -1.524255
   43  C  3 XY   -0.000000   0.000000  -0.000000  -0.000000   0.000000
   44  C  3 XZ    1.575804  -1.327049  -0.000000   0.000000  -0.000000
   45  C  3 YZ    0.367470   0.436352  -0.000000   0.000000  -0.000000
   46  H  4  S   -0.885808  -1.051852  -0.448057   0.887208   0.501954
   47  H  4  S   -0.217363  -0.258107   0.214858  -0.314091  -0.136062
   48  H  4  X   -0.049995   0.042103  -0.000000   0.000000   0.000000
   49  H  4  Y    0.616702   0.732303   0.306745  -0.523178  -0.415426
   50  H  4  Z    0.136897   0.162558   0.195457  -0.349333  -0.196072
   51  H  5  S    0.885808   1.051852  -0.448057   0.887208   0.501954
   52  H  5  S    0.217363   0.258107   0.214858  -0.314091  -0.136062
   53  H  5  X   -0.049995   0.042103   0.000000  -0.000000  -0.000000
   54  H  5  Y    0.616702   0.732303  -0.306745   0.523178   0.415426
   55  H  5  Z   -0.136897  -0.162558   0.195457  -0.349333  -0.196072
   56  H  6  S    1.051852  -0.885808  -0.448057  -0.887208   0.501954
   57  H  6  S    0.258107  -0.217363   0.214858   0.314091  -0.136062
   58  H  6  X   -0.732303   0.616702   0.306745   0.523178  -0.415426
   59  H  6  Y    0.042103   0.049995   0.000000   0.000000  -0.000000
   60  H  6  Z    0.162558  -0.136897  -0.195457  -0.349333   0.196072
   61  H  7  S   -1.051852   0.885808  -0.448057  -0.887208   0.501954
   62  H  7  S   -0.258107   0.217363   0.214858   0.314091  -0.136062
   63  H  7  X   -0.732303   0.616702  -0.306745  -0.523178   0.415426
   64  H  7  Y    0.042103   0.049995  -0.000000  -0.000000   0.000000
   65  H  7  Z   -0.162558   0.136897  -0.195457  -0.349333   0.196072
 ...... END OF RHF CALCULATION ......
 STEP CPU TIME =     0.32 TOTAL CPU TIME =        1.0 (    0.0 MIN)
 TOTAL WALL CLOCK TIME=        1.0 SECONDS, CPU UTILIZATION IS 100.00%

     ----------------------------------------------------------------
     PROPERTY VALUES FOR THE RHF   SELF-CONSISTENT FIELD WAVEFUNCTION
     ----------------------------------------------------------------

          -----------------
          ENERGY COMPONENTS
          -----------------

         WAVEFUNCTION NORMALIZATION =       1.0000000000

                ONE ELECTRON ENERGY =    -271.6027990923
                TWO ELECTRON ENERGY =      96.7231855714
           NUCLEAR REPULSION ENERGY =      59.0071065315
                                      ------------------
                       TOTAL ENERGY =    -115.8725069894

 ELECTRON-ELECTRON POTENTIAL ENERGY =      96.7231855714
  NUCLEUS-ELECTRON POTENTIAL ENERGY =    -387.1479192216
   NUCLEUS-NUCLEUS POTENTIAL ENERGY =      59.0071065315
                                      ------------------
             TOTAL POTENTIAL ENERGY =    -231.4176271186
               TOTAL KINETIC ENERGY =     115.5451201293
                 VIRIAL RATIO (V/T) =       2.0028334114

          ---------------------------------------
          MULLIKEN AND LOWDIN POPULATION ANALYSES
          ---------------------------------------

     ATOMIC MULLIKEN POPULATION IN EACH MOLECULAR ORBITAL

                      1          2          3          4          5

                  2.000000   2.000000   2.000000   2.000000   2.000000

    1             1.994982   0.000413   0.005511   0.952134   0.605914
    2             0.002501   0.999641   0.997085   0.440939   0.501638
    3             0.002501   0.999641   0.997085   0.440939   0.501638
    4             0.000004   0.000076   0.000080   0.041497   0.097703
    5             0.000004   0.000076   0.000080   0.041497   0.097703
    6             0.000004   0.000076   0.000080   0.041497   0.097703
    7             0.000004   0.000076   0.000080   0.041497   0.097703

                      6          7          8          9         10

                  2.000000   2.000000   2.000000   2.000000   2.000000

    1             0.280311   0.471155   0.186794   0.186794   0.758046
    2             0.514397   0.522885   0.907738   0.057226   1.010447
    3             0.514397   0.522885   0.057226   0.907738   0.096112
    4             0.172724   0.120769   0.414067   0.010055   0.007805
    5             0.172724   0.120769   0.414067   0.010055   0.007805
    6             0.172724   0.120769   0.010055   0.414067   0.059892
    7             0.172724   0.120769   0.010055   0.414067   0.059892

                     11

                  2.000000

    1             0.758046
    2             0.096112
    3             1.010447
    4             0.059892
    5             0.059892
    6             0.007805
    7             0.007805

               ----- POPULATIONS IN EACH AO -----
                             MULLIKEN      LOWDIN
              1  C  1  S      2.00251     1.86543
              2  C  1  S      0.70798     0.51154
              3  C  1  S      0.47411     0.26512
              4  C  1  X      0.51937     0.46197
              5  C  1  Y      0.51937     0.46197
              6  C  1  Z      0.84878     0.73133
              7  C  1  X      0.39143     0.40712
              8  C  1  Y      0.39143     0.40712
              9  C  1  Z      0.22861     0.29082
             10  C  1 XX     -0.01349     0.09159
             11  C  1 YY     -0.01349     0.09159
             12  C  1 ZZ      0.07540     0.27663
             13  C  1 XY      0.00000     0.00000
             14  C  1 XZ      0.03404     0.07501
             15  C  1 YZ      0.03404     0.07501
             16  C  2  S      2.00248     1.86208
             17  C  2  S      0.63931     0.46882
             18  C  2  S      0.33750     0.28854
             19  C  2  X      0.57728     0.52226
             20  C  2  Y      0.70193     0.61683
             21  C  2  Z      0.72935     0.64111
             22  C  2  X      0.48765     0.50142
             23  C  2  Y      0.26520     0.41422
             24  C  2  Z      0.26103     0.33826
             25  C  2 XX     -0.00696     0.08321
             26  C  2 YY      0.00030     0.16988
             27  C  2 ZZ      0.01608     0.19406
             28  C  2 XY      0.00000     0.00000
             29  C  2 XZ      0.01467     0.02484
             30  C  2 YZ      0.02479     0.06897
             31  C  3  S      2.00248     1.86208
             32  C  3  S      0.63931     0.46882
             33  C  3  S      0.33750     0.28854
             34  C  3  X      0.70193     0.61683
             35  C  3  Y      0.57728     0.52226
             36  C  3  Z      0.72935     0.64111
             37  C  3  X      0.26520     0.41422
             38  C  3  Y      0.48765     0.50142
             39  C  3  Z      0.26103     0.33826
             40  C  3 XX      0.00030     0.16988
             41  C  3 YY     -0.00696     0.08321
             42  C  3 ZZ      0.01608     0.19406
             43  C  3 XY      0.00000     0.00000
             44  C  3 XZ      0.02479     0.06897
             45  C  3 YZ      0.01467     0.02484
             46  H  4  S      0.74342     0.58354
             47  H  4  S      0.14716     0.24152
             48  H  4  X      0.00613     0.01966
             49  H  4  Y      0.01878     0.03544
             50  H  4  Z      0.00917     0.01952
             51  H  5  S      0.74342     0.58354
             52  H  5  S      0.14716     0.24152
             53  H  5  X      0.00613     0.01966
             54  H  5  Y      0.01878     0.03544
             55  H  5  Z      0.00917     0.01952
             56  H  6  S      0.74342     0.58354
             57  H  6  S      0.14716     0.24152
             58  H  6  X      0.01878     0.03544
             59  H  6  Y      0.00613     0.01966
             60  H  6  Z      0.00917     0.01952
             61  H  7  S      0.74342     0.58354
             62  H  7  S      0.14716     0.24152
             63  H  7  X      0.01878     0.03544
             64  H  7  Y      0.00613     0.01966
             65  H  7  Z      0.00917     0.01952

          ----- MULLIKEN ATOMIC OVERLAP POPULATIONS -----
          (OFF-DIAGONAL ELEMENTS NEED TO BE MULTIPLIED BY 2)

             1           2           3           4           5

    1    4.7207575
    2    0.7423623   4.6257202
    3    0.7423623  -0.0934241   4.6257202
    4   -0.0013459   0.3866272   0.0013476   0.5702588
    5   -0.0013459   0.3866272   0.0013476  -0.0321720   0.5702588
    6   -0.0013459   0.0013476   0.3866272  -0.0000223  -0.0000223
    7   -0.0013459   0.0013476   0.3866272  -0.0000223  -0.0000223

             6           7

    6    0.5702588
    7   -0.0321720   0.5702588

          TOTAL MULLIKEN AND LOWDIN ATOMIC POPULATIONS
       ATOM         MULL.POP.    CHARGE          LOW.POP.     CHARGE
    1 C             6.200099   -0.200099         6.012268   -0.012268
    2 C             6.050608   -0.050608         6.194501   -0.194501
    3 C             6.050608   -0.050608         6.194501   -0.194501
    4 H             0.924671    0.075329         0.899683    0.100317
    5 H             0.924671    0.075329         0.899683    0.100317
    6 H             0.924671    0.075329         0.899683    0.100317
    7 H             0.924671    0.075329         0.899683    0.100317

          -------------------------------
          BOND ORDER AND VALENCE ANALYSIS     BOND ORDER THRESHOLD=0.050
          -------------------------------

                   BOND                       BOND                       BOND
  ATOM PAIR DIST  ORDER      ATOM PAIR DIST  ORDER      ATOM PAIR DIST  ORDER
    1   2  1.313  2.068        1   3  1.313  2.068        2   4  1.083  0.935
    2   5  1.083  0.935        3   6  1.083  0.935        3   7  1.083  0.935

                       TOTAL       BONDED        FREE
      ATOM            VALENCE     VALENCE     VALENCE
    1 C                 4.296       4.296       0.000
    2 C                 3.964       3.964       0.000
    3 C                 3.964       3.964      -0.000
    4 H                 0.977       0.977      -0.000
    5 H                 0.977       0.977      -0.000
    6 H                 0.977       0.977       0.000
    7 H                 0.977       0.977       0.000

          ---------------------
          ELECTROSTATIC MOMENTS
          ---------------------

 POINT   1           X           Y           Z (BOHR)    CHARGE
                 0.000000    0.000000    0.000000       -0.00 (A.U.)
         DX          DY          DZ         /D/  (DEBYE)
     0.000000   -0.000000    0.000000    0.000000
 ...... END OF PROPERTY EVALUATION ......
 STEP CPU TIME =     0.01 TOTAL CPU TIME =        1.0 (    0.0 MIN)
 TOTAL WALL CLOCK TIME=        1.0 SECONDS, CPU UTILIZATION IS 100.00%
               580000  WORDS OF DYNAMIC MEMORY USED
 EXECUTION OF GAMESS TERMINATED NORMALLY Fri Jan 30 16:21:30 2015
 DDI: 263624 bytes (0.3 MB / 0 MWords) used by master data server.

 ----------------------------------------
 CPU timing information for all processes
 ========================================
 0: 0.963 + 0.80 = 1.43
 ----------------------------------------
 ddikick.x: exited gracefully.
----- accounting info -----
Files used on the master node euler were:
-rw-rw-r-- 1 simon simon      534 Jan 30 16:21 /home/simon/gamess_tmp/hf_fc.F05
-rw-rw-r-- 1 simon simon 14401280 Jan 30 16:21 /home/simon/gamess_tmp/hf_fc.F08
-rw-rw-r-- 1 simon simon  1636000 Jan 30 16:21 /home/simon/gamess_tmp/hf_fc.F10
Fri Jan 30 16:21:33 EST 2015
0.0u 0.0s 0:04.13 1.6% 0+0k 0+16io 0pf+0w
